 Gaussian 16, Revision A.03,
 Gaussian 16:  ES64L-G16RevA.03 25-Dec-2016

 -------------------------------------------------
 #P opt b3lyp/6-311G(d, p) empiricaldispersion=GD3
 -------------------------------------------------

 -----
 force
 -----
 Symbolic Z-matrix:
 Charge =  0 Multiplicity = 1

 SCF Done:  E(RB3LYP) =  -2521.48230249     A.U. after   18 cycles
 SCF Done:  E(RB3LYP) =  -2521.49096177     A.U. after   16 cycles
 SCF Done:  E(RB3LYP) =  -2521.49118292     A.U. after    9 cycles
 SCF Done:  E(RB3LYP) =  -2521.49120800     A.U. after    9 cycles
 Optimization completed.
    -- Stationary point found.

                         Standard orientation:
 ---------------------------------------------------------------------
 Center     Atomic      Atomic             Coordinates (Angstroms)
 Number     Number       Type             X           Y           Z
 ---------------------------------------------------------------------
      1          6           0        3.262252    2.590503   -0.616377
      2          6           0        3.692082    1.373558   -1.512103
      3          6           0        2.570930    0.883727   -2.418685
      4          6           0        1.428783    1.575985   -2.746867
      5          6           0        2.535102   -0.518599   -2.464785
      6          6           0        3.355039   -1.053483   -1.418744
      7          6           0       -3.023711    0.184758   -2.666182
      8          6           0        4.206532    0.029678   -0.788958
      9          6           0        3.011755   -2.236589   -0.841365
     10          6           0       -4.119564    0.105385   -1.513351
     11          6           0        1.876532   -2.965444   -1.334805
     12          6           0        1.095457   -2.467969   -2.381705
     13          6           0        1.391503   -1.181058   -2.922677
     14          6           0       -0.307284   -2.944368    1.999840
     15          6           0       -0.327354   -2.639081   -2.388588
     16          6           0       -0.923685   -3.577730    0.918258
     17          6           0       -2.212260   -3.123977    0.506593
     18          6           0       -0.946612    1.420266    2.903629
     19          6           0        0.165889    0.479509    3.217872
     20          6           0        0.182869   -0.914625    3.104253
     21          6           0       -3.801299   -1.173248   -0.771061
     22          6           0       -2.878946   -1.952832   -1.529470
     23          6           0       -2.247831   -1.129430   -2.530544
     24          6           0       -0.946615   -1.420267   -2.903629
     25          6           0        0.165884   -0.479509   -3.217873
     26          6           0        0.182865    0.914626   -3.104255
     27          6           0       -0.925311    1.800158   -2.663942
     28          6           0       -2.230997    1.460145   -2.343903
     29          6           0       -2.870313    2.140673   -1.244269
     30          6           0       -3.799983    1.268240   -0.602842
     31          6           0       -3.801297    1.173249    0.771065
     32          6           0       -2.878943    1.952832    1.529473
     33          6           0       -4.119563   -0.105385    1.513356
     34          6           0       -2.215335    3.026895    0.930838
     35          6           0       -2.212260    3.123977   -0.506590
     36          6           0       -0.923685    3.577730   -0.918256
     37          6           0       -3.023708   -0.184757    2.666185
     38          6           0       -0.307286    2.944369   -1.999840
     39          6           0        1.119214    2.814352   -2.033859
     40          6           0       -2.247827    1.129429    2.530545
     41          6           0        1.902503    3.215800   -0.972335
     42          6           0        1.236198    3.635230    0.227899
     43          6           0       -0.137716    3.855679    0.259859
     44          6           0       -0.928049    3.415998    1.400052
     45          6           0       -0.925307   -1.800156    2.663942
     46          6           0       -2.230994   -1.460145    2.343905
     47          6           0       -0.327351    2.639080    2.388587
     48          6           0       -2.870312   -2.140673    1.244272
     49          6           0        1.095460    2.467969    2.381704
     50          6           0       -3.799982   -1.268240    0.602846
     51          6           0        1.391508    1.181059    2.922677
     52          6           0        2.535106    0.518599    2.464785
     53          6           0        2.570935   -0.883728    2.418683
     54          6           0        1.428787   -1.575984    2.746863
     55          6           0        1.119216   -2.814353    2.033858
     56          6           0       -2.215337   -3.026895   -0.930836
     57          6           0       -0.928052   -3.415998   -1.400051
     58          6           0       -0.137717   -3.855677   -0.259860
     59          6           0        1.236198   -3.635231   -0.227901
     60          6           0        1.902504   -3.215799    0.972332
     61          6           0        3.262252   -2.590507    0.616377
     62          6           0        3.692085   -1.373560    1.512099
     63          6           0        4.206534   -0.029674    0.788954
     64          6           0        3.355043    1.053483    1.418743
     65          6           0        3.011756    2.236588    0.841363
     66          6           0        1.876534    2.965445    1.334803
     67          1           0       -3.479418    0.261014   -3.657384
     68          1           0       -5.137606    0.133206   -1.910796
     69          1           0       -5.137604   -0.133204    1.910801
     70          1           0       -3.479414   -0.261014    3.657387
     71          1           0        5.243522   -0.118629   -1.100335
     72          1           0        5.243526    0.118626    1.100329
     73          1           0        4.513651    1.727292   -2.138717
     74          1           0        4.041363    3.356345   -0.697196
     75          1           0        4.513659   -1.727292    2.138709
     76          1           0        4.041364   -3.356349    0.697194
 ---------------------------------------------------------------------

 The electronic state is 1-A.
 Alpha  occ. eigenvalues --  -10.21914 -10.21914 -10.21737 -10.21737 -10.21597
 Alpha  occ. eigenvalues --  -10.21597 -10.21596 -10.21596 -10.21550 -10.21550
 Alpha  occ. eigenvalues --  -10.21483 -10.21468 -10.21321 -10.21321 -10.21277
 Alpha  occ. eigenvalues --  -10.21275 -10.21116 -10.21116 -10.21088 -10.21088
 Alpha  occ. eigenvalues --  -10.20958 -10.20958 -10.20930 -10.20930 -10.20684
 Alpha  occ. eigenvalues --  -10.20684 -10.20586 -10.20584 -10.20565 -10.20564
 Alpha  occ. eigenvalues --  -10.20532 -10.20532 -10.20504 -10.20504 -10.20453
 Alpha  occ. eigenvalues --  -10.20453 -10.20243 -10.20243 -10.20234 -10.20234
 Alpha  occ. eigenvalues --  -10.20192 -10.20192 -10.20153 -10.20153 -10.20046
 Alpha  occ. eigenvalues --  -10.20046 -10.20045 -10.20045 -10.19957 -10.19957
 Alpha  occ. eigenvalues --  -10.19957 -10.19956 -10.19871 -10.19871 -10.19853
 Alpha  occ. eigenvalues --  -10.19853 -10.19695 -10.19695 -10.19689 -10.19689
 Alpha  occ. eigenvalues --  -10.19611 -10.19611 -10.19530 -10.19530 -10.19472
 Alpha  occ. eigenvalues --  -10.19472  -0.95833  -0.94716  -0.93915  -0.93470
 Alpha  occ. eigenvalues --   -0.91269  -0.91033  -0.90616  -0.90263  -0.89507
 Alpha  occ. eigenvalues --   -0.87263  -0.86868  -0.86438  -0.86282  -0.85064
 Alpha  occ. eigenvalues --   -0.83093  -0.83007  -0.80729  -0.80418  -0.79953
 Alpha  occ. eigenvalues --   -0.79722  -0.79096  -0.78443  -0.77918  -0.77096
 Alpha  occ. eigenvalues --   -0.76535  -0.74554  -0.73846  -0.73585  -0.73320
 Alpha  occ. eigenvalues --   -0.72512  -0.72398  -0.71879  -0.71804  -0.69877
 Alpha  occ. eigenvalues --   -0.69252  -0.66844  -0.66124  -0.65523  -0.65336
 Alpha  occ. eigenvalues --   -0.64913  -0.64347  -0.63837  -0.63641  -0.62452
 Alpha  occ. eigenvalues --   -0.61584  -0.61412  -0.61223  -0.59715  -0.59153
 Alpha  occ. eigenvalues --   -0.57918  -0.57304  -0.56962  -0.56420  -0.55415
 Alpha  occ. eigenvalues --   -0.54895  -0.54032  -0.52639  -0.52470  -0.51994
 Alpha  occ. eigenvalues --   -0.51878  -0.51588  -0.50821  -0.50502  -0.50436
 Alpha  occ. eigenvalues --   -0.49717  -0.49435  -0.48649  -0.48590  -0.48004
 Alpha  occ. eigenvalues --   -0.47481  -0.47066  -0.46422  -0.46392  -0.45557
 Alpha  occ. eigenvalues --   -0.45333  -0.45333  -0.45142  -0.44719  -0.44662
 Alpha  occ. eigenvalues --   -0.44319  -0.43964  -0.43754  -0.43446  -0.43151
 Alpha  occ. eigenvalues --   -0.42937  -0.42643  -0.42602  -0.42014  -0.41793
 Alpha  occ. eigenvalues --   -0.41383  -0.40695  -0.40668  -0.40486  -0.40317
 Alpha  occ. eigenvalues --   -0.40069  -0.39808  -0.39324  -0.39297  -0.38929
 Alpha  occ. eigenvalues --   -0.38905  -0.38204  -0.37980  -0.37934  -0.37415
 Alpha  occ. eigenvalues --   -0.36755  -0.36019  -0.36003  -0.35734  -0.35596
 Alpha  occ. eigenvalues --   -0.35230  -0.34821  -0.34717  -0.34389  -0.34162
 Alpha  occ. eigenvalues --   -0.34135  -0.34039  -0.33873  -0.33783  -0.33225
 Alpha  occ. eigenvalues --   -0.32853  -0.32161  -0.31709  -0.31581  -0.30739
 Alpha  occ. eigenvalues --   -0.28151  -0.27575  -0.26806  -0.26274  -0.26081
 Alpha  occ. eigenvalues --   -0.24773  -0.24492  -0.24180  -0.23153  -0.22346
 Alpha  occ. eigenvalues --   -0.21106  -0.21082  -0.20588
 Alpha virt. eigenvalues --   -0.10691  -0.09904  -0.08940  -0.07546  -0.06336
 Alpha virt. eigenvalues --   -0.05908  -0.04721  -0.04637  -0.03131  -0.02564
 Alpha virt. eigenvalues --   -0.02127  -0.01314  -0.01140  -0.00667   0.00232

 Mulliken charges:
               1
     1  C   -0.145124
     2  C   -0.129949
     3  C   -0.034364
     4  C    0.013504
     5  C    0.029050
     6  C   -0.016677
     7  C   -0.123499
     8  C   -0.127463
     9  C   -0.012085
    10  C   -0.170961
    11  C    0.024590
    12  C   -0.008211
    13  C   -0.013628
    14  C   -0.008170
    15  C   -0.005987
    16  C   -0.002595
    17  C   -0.015499
    18  C    0.009792
    19  C    0.000793
    20  C   -0.013208
    21  C   -0.004870
    22  C    0.031519
    23  C   -0.025495
    24  C    0.009792
    25  C    0.000795
    26  C   -0.013210
    27  C    0.018338
    28  C   -0.025950
    29  C    0.032314
    30  C   -0.005972
    31  C   -0.004870
    32  C    0.031519
    33  C   -0.170960
    34  C   -0.012509
    35  C   -0.015498
    36  C   -0.002596
    37  C   -0.123498
    38  C   -0.008169
    39  C   -0.000155
    40  C   -0.025495
    41  C   -0.025107
    42  C    0.016293
    43  C   -0.018853
    44  C   -0.007362
    45  C    0.018339
    46  C   -0.025951
    47  C   -0.005987
    48  C    0.032314
    49  C   -0.008212
    50  C   -0.005973
    51  C   -0.013626
    52  C    0.029048
    53  C   -0.034361
    54  C    0.013501
    55  C   -0.000154
    56  C   -0.012509
    57  C   -0.007362
    58  C   -0.018854
    59  C    0.016294
    60  C   -0.025108
    61  C   -0.145123
    62  C   -0.129950
    63  C   -0.127464
    64  C   -0.016676
    65  C   -0.012085
    66  C    0.024591
    67  H    0.163191
    68  H    0.158285
    69  H    0.158285
    70  H    0.163191
    71  H    0.145082
    72  H    0.145082
    73  H    0.151201
    74  H    0.159740
    75  H    0.151201
    76  H    0.159740
 Sum of Mulliken charges =  -0.00000

 Dipole moment (field-independent basis, Debye):
    X=              1.6214    Y=             -0.0000    Z=             -0.0000  Tot=              1.6214
 Quadrupole moment (field-independent basis, Debye-Ang):
   XX=           -326.2899   YY=           -383.7328   ZZ=           -372.4375
   XY=             -0.0000   XZ=             -0.0000   YZ=             -5.4198

 Normal termination of Gaussian 16 at Wed Jul 20 08:20:12 2022.
