 Gaussian 16, Revision A.03,
 Gaussian 16:  ES64L-G16RevA.03 25-Dec-2016

 -------------------------------------------------
 #P opt b3lyp/6-311G(d, p) empiricaldispersion=GD3
 -------------------------------------------------

 -----
 force
 -----
 Symbolic Z-matrix:
 Charge =  0 Multiplicity = 1

 SCF Done:  E(RB3LYP) =  -2521.48376590     A.U. after   18 cycles
 SCF Done:  E(RB3LYP) =  -2521.49235576     A.U. after   16 cycles
 SCF Done:  E(RB3LYP) =  -2521.49258552     A.U. after   10 cycles
 SCF Done:  E(RB3LYP) =  -2521.49261228     A.U. after    9 cycles
 Optimization completed.
    -- Stationary point found.

                         Standard orientation:
 ---------------------------------------------------------------------
 Center     Atomic      Atomic             Coordinates (Angstroms)
 Number     Number       Type             X           Y           Z
 ---------------------------------------------------------------------
      1          6           0       -3.683753   -2.096053   -0.349133
      2          6           0       -3.917479   -0.872949   -1.299623
      3          6           0       -2.748387   -0.592429   -2.222313
      4          6           0       -1.733146   -1.441120   -2.549154
      5          6           0       -2.542554    0.797465   -2.378800
      6          6           0       -3.269430    1.503139   -1.380852
      7          6           0        2.856039   -0.671921   -2.730605
      8          6           0       -4.207331    0.565464   -0.635811
      9          6           0       -2.741046    2.665415   -0.866563
     10          6           0        4.001481   -0.698252   -1.623355
     11          6           0       -1.525728    3.211876   -1.420363
     12          6           0       -0.852331    2.546125   -2.453449
     13          6           0       -1.337372    1.278324   -2.901305
     14          6           0        0.794882    2.994833    1.888643
     15          6           0        0.579919    2.508367   -2.502542
     16          6           0        1.431246    3.481632    0.748119
     17          6           0        2.625629    2.839052    0.311597
     18          6           0        0.848839   -1.358978    2.961922
     19          6           0       -0.104018   -0.255901    3.287161
     20          6           0        0.081326    1.115666    3.128845
     21          6           0        3.889498    0.641358   -0.928993
     22          6           0        3.049658    1.508694   -1.689629
     23          6           0        2.272205    0.740766   -2.628373
     24          6           0        1.009045    1.191693   -2.968200
     25          6           0       -0.231090    0.399365   -3.184892
     26          6           0       -0.434420   -0.966999   -2.977297
     27          6           0        0.554848   -1.988509   -2.567354
     28          6           0        1.916831   -1.814325   -2.320012
     29          6           0        2.496519   -2.529671   -1.227982
     30          6           0        3.564051   -1.769669   -0.650185
     31          6           0        3.626489   -1.617900    0.713972
     32          6           0        2.619807   -2.216125    1.532456
     33          6           0        4.149154   -0.367994    1.388450
     34          6           0        1.779131   -3.194233    0.998519
     35          6           0        1.718912   -3.370174   -0.427648
     36          6           0        0.374281   -3.669577   -0.791198
     37          6           0        3.126040   -0.087537    2.577335
     38          6           0       -0.174752   -3.024833   -1.877310
     39          6           0       -1.673557   -2.860555   -2.058427
     40          6           0        2.159394   -1.275238    2.524665
     41          6           0       -2.580350   -3.175589   -0.787908
     42          6           0       -1.735482   -3.358000    0.460455
     43          6           0       -0.422818   -3.755678    0.449815
     44          6           0        0.469035   -3.368325    1.524483
     45          6           0        1.282491    1.811979    2.594138
     46          6           0        2.508432    1.274374    2.229651
     47          6           0        0.038280   -2.487262    2.516067
     48          6           0        3.180586    1.808986    1.072093
     49          6           0       -1.333343   -2.117305    2.544119
     50          6           0        3.954248    0.790657    0.438038
     51          6           0       -1.441415   -0.795456    3.064477
     52          6           0       -2.506478   -0.014503    2.631302
     53          6           0       -2.332250    1.393840    2.497895
     54          6           0       -1.074019    1.940818    2.769778
     55          6           0       -0.636271    3.050855    1.982699
     56          6           0        2.557908    2.685003   -1.118929
     57          6           0        1.319758    3.230215   -1.565800
     58          6           0        0.636997    3.813937   -0.422762
     59          6           0       -0.747968    3.798737   -0.350079
     60          6           0       -1.413391    3.485731    0.896537
     61          6           0       -2.674381    2.846532    0.598142
     62          6           0       -3.154942    1.855739    1.416409
     63          6           0       -4.072120    0.719419    0.939294
     64          6           0       -3.422739   -0.468601    1.619034
     65          6           0       -3.246165   -1.689261    1.044807
     66          6           0       -2.202281   -2.539000    1.522370
     67          1           0        3.255304   -0.847088   -3.733643
     68          1           0        4.988337   -0.880778   -2.056713
     69          1           0        5.177188   -0.466548    1.746740
     70          1           0        3.629541   -0.043787    3.547025
     71          1           0       -5.237619    0.834060   -0.875930
     72          1           0       -5.082129    0.876689    1.332672
     73          1           0       -4.792817   -1.110368   -1.910738
     74          1           0       -4.634163   -2.631988   -0.279125
     75          1           0       -3.099895   -4.107623   -1.015783
     76          1           0       -2.004633   -3.539376   -2.853153
 ---------------------------------------------------------------------

 The electronic state is 1-A.
 Alpha  occ. eigenvalues --  -10.21883 -10.21878 -10.21760 -10.21757 -10.21640
 Alpha  occ. eigenvalues --  -10.21603 -10.21590 -10.21568 -10.21533 -10.21514
 Alpha  occ. eigenvalues --  -10.21498 -10.21472 -10.21452 -10.21394 -10.21243
 Alpha  occ. eigenvalues --  -10.21241 -10.21226 -10.21050 -10.21037 -10.20999
 Alpha  occ. eigenvalues --  -10.20927 -10.20892 -10.20813 -10.20738 -10.20715
 Alpha  occ. eigenvalues --  -10.20551 -10.20508 -10.20506 -10.20502 -10.20500
 Alpha  occ. eigenvalues --  -10.20461 -10.20434 -10.20431 -10.20414 -10.20358
 Alpha  occ. eigenvalues --  -10.20354 -10.20329 -10.20319 -10.20315 -10.20274
 Alpha  occ. eigenvalues --  -10.20236 -10.20233 -10.20224 -10.20189 -10.20184
 Alpha  occ. eigenvalues --  -10.20123 -10.20085 -10.20076 -10.20074 -10.19964
 Alpha  occ. eigenvalues --  -10.19956 -10.19929 -10.19921 -10.19870 -10.19861
 Alpha  occ. eigenvalues --  -10.19825 -10.19819 -10.19818 -10.19742 -10.19693
 Alpha  occ. eigenvalues --  -10.19686 -10.19674 -10.19661 -10.19636 -10.19623
 Alpha  occ. eigenvalues --  -10.19603  -0.95836  -0.94625  -0.94076  -0.93435
 Alpha  occ. eigenvalues --   -0.91242  -0.91084  -0.90578  -0.90261  -0.89515
 Alpha  occ. eigenvalues --   -0.87268  -0.86945  -0.86465  -0.86290  -0.85070
 Alpha  occ. eigenvalues --   -0.83149  -0.82896  -0.80781  -0.80362  -0.79999
 Alpha  occ. eigenvalues --   -0.79784  -0.79165  -0.78453  -0.77831  -0.77227
 Alpha  occ. eigenvalues --   -0.76518  -0.74427  -0.73960  -0.73480  -0.73302
 Alpha  occ. eigenvalues --   -0.72523  -0.72448  -0.71951  -0.71854  -0.69813
 Alpha  occ. eigenvalues --   -0.69426  -0.66973  -0.66277  -0.65363  -0.64990
 Alpha  occ. eigenvalues --   -0.64907  -0.64113  -0.63790  -0.63581  -0.62920
 Alpha  occ. eigenvalues --   -0.61641  -0.61559  -0.61036  -0.60139  -0.59025
 Alpha  occ. eigenvalues --   -0.57949  -0.57388  -0.56765  -0.56076  -0.55262
 Alpha  occ. eigenvalues --   -0.54610  -0.53958  -0.53034  -0.52990  -0.52415
 Alpha  occ. eigenvalues --   -0.52076  -0.51361  -0.51170  -0.50616  -0.50270
 Alpha  occ. eigenvalues --   -0.49639  -0.49319  -0.48579  -0.48227  -0.47473
 Alpha  occ. eigenvalues --   -0.47361  -0.46938  -0.46823  -0.46617  -0.45826
 Alpha  occ. eigenvalues --   -0.45532  -0.45232  -0.45124  -0.45014  -0.44702
 Alpha  occ. eigenvalues --   -0.44169  -0.43793  -0.43625  -0.43553  -0.43234
 Alpha  occ. eigenvalues --   -0.42789  -0.42584  -0.42370  -0.41904  -0.41778
 Alpha  occ. eigenvalues --   -0.41357  -0.41184  -0.40998  -0.40285  -0.40175
 Alpha  occ. eigenvalues --   -0.40078  -0.39841  -0.39480  -0.39218  -0.38895
 Alpha  occ. eigenvalues --   -0.38585  -0.38302  -0.37991  -0.37945  -0.36975
 Alpha  occ. eigenvalues --   -0.36710  -0.36473  -0.36254  -0.35719  -0.35244
 Alpha  occ. eigenvalues --   -0.35214  -0.34984  -0.34778  -0.34574  -0.34397
 Alpha  occ. eigenvalues --   -0.34220  -0.34039  -0.33939  -0.33827  -0.33301
 Alpha  occ. eigenvalues --   -0.32926  -0.32539  -0.32220  -0.30773  -0.29267
 Alpha  occ. eigenvalues --   -0.28745  -0.28090  -0.27169  -0.26424  -0.25704
 Alpha  occ. eigenvalues --   -0.25082  -0.24532  -0.23193  -0.22984  -0.22550
 Alpha  occ. eigenvalues --   -0.22330  -0.21163  -0.19947
 Alpha virt. eigenvalues --   -0.11044  -0.09714  -0.08597  -0.07536  -0.06710
 Alpha virt. eigenvalues --   -0.05532  -0.05210  -0.04408  -0.02897  -0.02729
 Alpha virt. eigenvalues --   -0.02064  -0.01654  -0.01283  -0.00534   0.01000

 Mulliken charges:
               1
     1  C   -0.130595
     2  C   -0.127341
     3  C   -0.013040
     4  C   -0.039080
     5  C    0.030546
     6  C   -0.022322
     7  C   -0.122127
     8  C   -0.132420
     9  C    0.001255
    10  C   -0.171992
    11  C   -0.000825
    12  C   -0.005688
    13  C   -0.012792
    14  C   -0.007324
    15  C   -0.006108
    16  C   -0.006657
    17  C   -0.012086
    18  C    0.014238
    19  C   -0.004242
    20  C   -0.004655
    21  C   -0.004973
    22  C    0.030744
    23  C   -0.024750
    24  C    0.008878
    25  C   -0.003271
    26  C    0.019589
    27  C    0.045743
    28  C   -0.028436
    29  C    0.027573
    30  C   -0.006080
    31  C   -0.006319
    32  C    0.033344
    33  C   -0.171809
    34  C   -0.007740
    35  C   -0.014137
    36  C    0.001106
    37  C   -0.125514
    38  C   -0.050071
    39  C   -0.115754
    40  C   -0.027656
    41  C   -0.137871
    42  C   -0.019174
    43  C   -0.005717
    44  C   -0.007774
    45  C    0.016269
    46  C   -0.024970
    47  C   -0.006103
    48  C    0.031637
    49  C   -0.011883
    50  C   -0.006099
    51  C   -0.010911
    52  C    0.010781
    53  C    0.017869
    54  C   -0.009979
    55  C   -0.001837
    56  C   -0.011617
    57  C   -0.008666
    58  C   -0.013517
    59  C   -0.003372
    60  C   -0.001365
    61  C   -0.000485
    62  C   -0.029766
    63  C   -0.140646
    64  C   -0.010545
    65  C   -0.018398
    66  C    0.042200
    67  H    0.161826
    68  H    0.157641
    69  H    0.158217
    70  H    0.162858
    71  H    0.149519
    72  H    0.163325
    73  H    0.145955
    74  H    0.145541
    75  H    0.147650
    76  H    0.162195
 Sum of Mulliken charges =  -0.00000

 Dipole moment (field-independent basis, Debye):
    X=             -1.1366    Y=             -2.8682    Z=             -1.4537  Tot=              3.4105
 Quadrupole moment (field-independent basis, Debye-Ang):
   XX=           -332.2620   YY=           -380.7930   ZZ=           -370.6629
   XY=              5.0013   XZ=              5.4362   YZ=              8.4826

 Normal termination of Gaussian 16 at Wed Jul 20 05:30:20 2022.
