 Gaussian 16, Revision A.03,
 Gaussian 16:  ES64L-G16RevA.03 25-Dec-2016

 -------------------------------------------------
 #P opt b3lyp/6-311G(d, p) empiricaldispersion=GD3
 -------------------------------------------------

 -----
 force
 -----
 Symbolic Z-matrix:
 Charge =  0 Multiplicity = 1

 SCF Done:  E(RB3LYP) =  -2521.48195824     A.U. after   19 cycles
 SCF Done:  E(RB3LYP) =  -2521.49059206     A.U. after   15 cycles
 SCF Done:  E(RB3LYP) =  -2521.49082917     A.U. after    9 cycles
 SCF Done:  E(RB3LYP) =  -2521.49085689     A.U. after    9 cycles
 Optimization completed.
    -- Stationary point found.

                         Standard orientation:
 ---------------------------------------------------------------------
 Center     Atomic      Atomic             Coordinates (Angstroms)
 Number     Number       Type             X           Y           Z
 ---------------------------------------------------------------------
      1          6           0       -3.353464   -1.968277   -0.963559
      2          6           0       -3.603093   -0.702198   -1.479873
      3          6           0       -2.769554   -0.170496   -2.539001
      4          6           0       -1.673687   -0.906295   -2.998141
      5          6           0       -2.652145    1.242546   -2.368085
      6          6           0       -3.430832    1.621250   -1.162986
      7          6           0        2.846859    0.050563   -2.625070
      8          6           0       -3.960453    0.397650   -0.602869
      9          6           0       -2.970410    2.620708   -0.341648
     10          6           0        4.011340   -0.220936   -1.582038
     11          6           0       -1.883906    3.617217   -0.752622
     12          6           0       -1.052351    3.185533   -2.035731
     13          6           0       -1.445841    1.847964   -2.626398
     14          6           0        0.440550    2.297726    2.512913
     15          6           0        0.435604    2.981738   -1.814192
     16          6           0        1.082371    3.032681    1.512510
     17          6           0        2.332601    2.616303    1.041847
     18          6           0        0.670898   -2.121313    2.576354
     19          6           0       -0.358462   -1.183217    3.111867
     20          6           0       -0.228030    0.192543    3.285784
     21          6           0        4.130352    1.039838   -0.666195
     22          6           0        2.963320    1.884499   -1.132328
     23          6           0        2.209452    1.313788   -2.083517
     24          6           0        0.875910    1.833103   -2.390361
     25          6           0       -0.272650    1.077215   -2.943265
     26          6           0       -0.379819   -0.292479   -3.200231
     27          6           0        0.647816   -1.346956   -2.971406
     28          6           0        1.972564   -1.197061   -2.600431
     29          6           0        2.539434   -2.125748   -1.665935
     30          6           0        3.523369   -1.451543   -0.870828
     31          6           0        3.524934   -1.638561    0.482251
     32          6           0        2.544309   -2.499216    1.074493
     33          6           0        4.025709   -0.645227    1.486666
     34          6           0        1.797462   -3.368788    0.287209
     35          6           0        1.795954   -3.178897   -1.139736
     36          6           0        0.474504   -3.425926   -1.619396
     37          6           0        2.900407   -0.686394    2.615032
     38          6           0       -0.070374   -2.538403   -2.548482
     39          6           0       -1.480376   -2.257738   -2.532348
     40          6           0        1.994891   -1.868082    2.243697
     41          6           0       -2.297174   -2.783798   -1.527601
     42          6           0       -1.691734   -3.547047   -0.455345
     43          6           0       -0.342705   -3.865975   -0.501836
     44          6           0        0.478290   -3.738200    0.689264
     45          6           0        0.951205    1.030275    2.943992
     46          6           0        2.214397    0.657592    2.487619
     47          6           0       -0.056467   -3.140337    1.829237
     48          6           0        2.905085    1.475995    1.555191
     49          6           0       -1.466604   -2.870666    1.895997
     50          6           0        4.102627    0.812780    0.924480
     51          6           0       -1.664183   -1.709758    2.723065
     52          6           0       -2.766644   -0.885661    2.485774
     53          6           0       -2.635676    0.524548    2.677118
     54          6           0       -1.409777    1.036010    3.088507
     55          6           0       -0.981331    2.307375    2.574763
     56          6           0        2.579306    3.122340   -0.369156
     57          6           0        1.201541    3.782959   -0.789342
     58          6           0        0.343744    3.702659    0.485415
     59          6           0       -1.018470    3.647584    0.501226
     60          6           0       -1.695868    2.966450    1.574086
     61          6           0       -2.916849    2.385970    1.073299
     62          6           0       -3.396958    1.200951    1.636093
     63          6           0       -3.967841    0.193171    0.783006
     64          6           0       -3.614372   -1.106939    1.325449
     65          6           0       -3.351451   -2.172535    0.474817
     66          6           0       -2.290280   -3.105260    0.787858
     67          1           0        3.229068    0.228949   -3.636146
     68          1           0        4.958178   -0.411788   -2.092545
     69          1           0        4.992728   -0.949087    1.893831
     70          1           0        3.326630   -0.817061    3.614208
     71          1           0       -2.330793    4.595052   -0.957311
     72          1           0        1.348099    4.815798   -1.122413
     73          1           0        3.388014    3.860128   -0.421917
     74          1           0        5.011794    1.279671    1.312884
     75          1           0        5.074181    1.551095   -0.882662
     76          1           0       -1.199751    3.969688   -2.789508
 ---------------------------------------------------------------------

 The electronic state is 1-A.
 Alpha  occ. eigenvalues --  -10.22100 -10.21988 -10.21726 -10.21664 -10.21610
 Alpha  occ. eigenvalues --  -10.21583 -10.21540 -10.21504 -10.21297 -10.21179
 Alpha  occ. eigenvalues --  -10.21152 -10.21138 -10.21125 -10.21040 -10.21036
 Alpha  occ. eigenvalues --  -10.21025 -10.20991 -10.20920 -10.20895 -10.20858
 Alpha  occ. eigenvalues --  -10.20821 -10.20795 -10.20760 -10.20739 -10.20732
 Alpha  occ. eigenvalues --  -10.20721 -10.20705 -10.20695 -10.20626 -10.20620
 Alpha  occ. eigenvalues --  -10.20594 -10.20560 -10.20553 -10.20540 -10.20524
 Alpha  occ. eigenvalues --  -10.20509 -10.20489 -10.20482 -10.20451 -10.20433
 Alpha  occ. eigenvalues --  -10.20422 -10.20418 -10.20395 -10.20377 -10.20349
 Alpha  occ. eigenvalues --  -10.20321 -10.20292 -10.20282 -10.20277 -10.20173
 Alpha  occ. eigenvalues --  -10.20158 -10.20156 -10.20107 -10.20095 -10.20017
 Alpha  occ. eigenvalues --  -10.19995 -10.19986 -10.19966 -10.19944 -10.19867
 Alpha  occ. eigenvalues --  -10.19864 -10.19860 -10.19831 -10.19710 -10.19642
 Alpha  occ. eigenvalues --  -10.19607  -0.96020  -0.94590  -0.94047  -0.93565
 Alpha  occ. eigenvalues --   -0.91375  -0.91017  -0.90577  -0.90345  -0.89886
 Alpha  occ. eigenvalues --   -0.87465  -0.87285  -0.86686  -0.86001  -0.84964
 Alpha  occ. eigenvalues --   -0.83130  -0.82974  -0.81009  -0.80381  -0.80010
 Alpha  occ. eigenvalues --   -0.79856  -0.79249  -0.78300  -0.77994  -0.77288
 Alpha  occ. eigenvalues --   -0.76474  -0.74525  -0.73978  -0.73405  -0.73344
 Alpha  occ. eigenvalues --   -0.72389  -0.72293  -0.72109  -0.72026  -0.69869
 Alpha  occ. eigenvalues --   -0.69820  -0.67071  -0.65987  -0.65552  -0.65263
 Alpha  occ. eigenvalues --   -0.64647  -0.64039  -0.63850  -0.63299  -0.62872
 Alpha  occ. eigenvalues --   -0.62108  -0.61410  -0.60875  -0.60452  -0.59039
 Alpha  occ. eigenvalues --   -0.57603  -0.57153  -0.56460  -0.55825  -0.55687
 Alpha  occ. eigenvalues --   -0.54094  -0.53786  -0.53508  -0.53333  -0.52985
 Alpha  occ. eigenvalues --   -0.52121  -0.51905  -0.51502  -0.50728  -0.49987
 Alpha  occ. eigenvalues --   -0.49810  -0.49137  -0.48552  -0.48067  -0.47791
 Alpha  occ. eigenvalues --   -0.47377  -0.47039  -0.46645  -0.46509  -0.45958
 Alpha  occ. eigenvalues --   -0.45658  -0.45384  -0.45072  -0.44743  -0.44594
 Alpha  occ. eigenvalues --   -0.44484  -0.44219  -0.44065  -0.43541  -0.43356
 Alpha  occ. eigenvalues --   -0.42700  -0.42632  -0.42317  -0.42045  -0.41500
 Alpha  occ. eigenvalues --   -0.41445  -0.40929  -0.40690  -0.40635  -0.40375
 Alpha  occ. eigenvalues --   -0.39859  -0.39656  -0.39611  -0.39375  -0.38933
 Alpha  occ. eigenvalues --   -0.38804  -0.38652  -0.38260  -0.37864  -0.37666
 Alpha  occ. eigenvalues --   -0.37492  -0.36243  -0.36044  -0.35642  -0.35350
 Alpha  occ. eigenvalues --   -0.35086  -0.34980  -0.34732  -0.34697  -0.34577
 Alpha  occ. eigenvalues --   -0.34406  -0.34261  -0.33933  -0.33826  -0.33404
 Alpha  occ. eigenvalues --   -0.33160  -0.32329  -0.31742  -0.30951  -0.30060
 Alpha  occ. eigenvalues --   -0.28486  -0.27706  -0.27157  -0.26342  -0.25251
 Alpha  occ. eigenvalues --   -0.24874  -0.24326  -0.23789  -0.23066  -0.22582
 Alpha  occ. eigenvalues --   -0.22078  -0.21696  -0.20041
 Alpha virt. eigenvalues --   -0.11398  -0.09916  -0.09253  -0.07529  -0.06776
 Alpha virt. eigenvalues --   -0.05734  -0.04961  -0.03931  -0.03467  -0.02624
 Alpha virt. eigenvalues --   -0.02319  -0.02289  -0.01193  -0.00797   0.01662

 Mulliken charges:
               1
     1  C   -0.005523
     2  C   -0.002879
     3  C   -0.002895
     4  C   -0.011147
     5  C   -0.005289
     6  C    0.001763
     7  C   -0.144394
     8  C   -0.001923
     9  C   -0.019945
    10  C   -0.137161
    11  C   -0.160876
    12  C   -0.110826
    13  C   -0.023169
    14  C   -0.004606
    15  C   -0.054343
    16  C    0.044465
    17  C   -0.034405
    18  C    0.019650
    19  C   -0.005371
    20  C   -0.004000
    21  C   -0.104044
    22  C   -0.052269
    23  C   -0.017751
    24  C    0.032259
    25  C    0.013482
    26  C    0.000106
    27  C    0.010885
    28  C   -0.027085
    29  C    0.023996
    30  C    0.006381
    31  C    0.004784
    32  C    0.021124
    33  C   -0.148269
    34  C   -0.009390
    35  C   -0.010665
    36  C   -0.008771
    37  C   -0.136796
    38  C   -0.001112
    39  C   -0.005347
    40  C   -0.033557
    41  C    0.000794
    42  C   -0.004707
    43  C   -0.012499
    44  C   -0.006963
    45  C    0.014324
    46  C    0.002105
    47  C   -0.003124
    48  C    0.037391
    49  C   -0.003355
    50  C   -0.147190
    51  C   -0.005509
    52  C   -0.006463
    53  C   -0.006241
    54  C   -0.007883
    55  C   -0.012966
    56  C   -0.101618
    57  C   -0.110569
    58  C   -0.042558
    59  C    0.015398
    60  C    0.024259
    61  C    0.014995
    62  C   -0.010274
    63  C   -0.002425
    64  C   -0.005715
    65  C   -0.004535
    66  C    0.000122
    67  H    0.153662
    68  H    0.143729
    69  H    0.143685
    70  H    0.157899
    71  H    0.163727
    72  H    0.149244
    73  H    0.144696
    74  H    0.142457
    75  H    0.129461
    76  H    0.161559
 Sum of Mulliken charges =  -0.00000

 Dipole moment (field-independent basis, Debye):
    X=              5.8137    Y=              4.6394    Z=             -1.2046  Tot=              7.5349
 Quadrupole moment (field-independent basis, Debye-Ang):
   XX=           -351.8195   YY=           -362.9761   ZZ=           -372.0368
   XY=              2.6011   XZ=              1.8834   YZ=            -10.3000

 Normal termination of Gaussian 16 at Wed Jul 20 07:46:53 2022.
