 Gaussian 16, Revision A.03,
 Gaussian 16:  ES64L-G16RevA.03 25-Dec-2016

 -------------------------------------------------
 #P opt b3lyp/6-311G(d, p) empiricaldispersion=GD3
 -------------------------------------------------

 -----
 force
 -----
 Symbolic Z-matrix:
 Charge =  0 Multiplicity = 1

 SCF Done:  E(RB3LYP) =  -2521.47690031     A.U. after   18 cycles
 SCF Done:  E(RB3LYP) =  -2521.48614402     A.U. after   16 cycles
 SCF Done:  E(RB3LYP) =  -2521.48644671     A.U. after   10 cycles
 SCF Done:  E(RB3LYP) =  -2521.48648458     A.U. after    9 cycles
 Optimization completed.
    -- Stationary point found.

                         Standard orientation:
 ---------------------------------------------------------------------
 Center     Atomic      Atomic             Coordinates (Angstroms)
 Number     Number       Type             X           Y           Z
 ---------------------------------------------------------------------
      1          6           0        3.409098    2.526615   -0.461524
      2          6           0        3.788305    1.263413   -1.330533
      3          6           0        2.734786    0.804538   -2.333925
      4          6           0        1.580034    1.484373   -2.608713
      5          6           0        2.723293   -0.611035   -2.437091
      6          6           0        3.505409   -1.156090   -1.347206
      7          6           0       -2.827792    0.144800   -2.750384
      8          6           0        3.978247   -0.051933   -0.552613
      9          6           0        3.126046   -2.366500   -0.763832
     10          6           0       -3.961628    0.082638   -1.645259
     11          6           0        2.001432   -3.107926   -1.301122
     12          6           0        1.256384   -2.570841   -2.354405
     13          6           0        1.583242   -1.275916   -2.898293
     14          6           0       -0.322380   -2.999764    2.015365
     15          6           0       -0.172464   -2.716904   -2.393524
     16          6           0       -0.894811   -3.621172    0.905666
     17          6           0       -2.161242   -3.148673    0.447300
     18          6           0       -0.941143    1.330273    2.872180
     19          6           0        0.146933    0.395365    3.270060
     20          6           0        0.146426   -0.994902    3.171310
     21          6           0       -3.670643   -1.177495   -0.880086
     22          6           0       -2.740167   -1.983076   -1.607683
     23          6           0       -2.073511   -1.180962   -2.595805
     24          6           0       -0.764281   -1.493665   -2.926629
     25          6           0        0.358584   -0.564447   -3.196075
     26          6           0        0.357787    0.821918   -3.035743
     27          6           0       -0.739018    1.712483   -2.615081
     28          6           0       -2.045876    1.400611   -2.369944
     29          6           0       -2.760417    2.086327   -1.306447
     30          6           0       -3.685973    1.266365   -0.752862
     31          6           0       -4.015283    1.286286    0.738576
     32          6           0       -2.823779    1.907333    1.440936
     33          6           0       -4.121364   -0.134158    1.406282
     34          6           0       -2.123261    2.938897    0.862126
     35          6           0       -2.268783    3.327840   -0.601158
     36          6           0       -0.832387    3.817395   -1.015337
     37          6           0       -3.037404   -0.215389    2.572149
     38          6           0       -0.113961    2.861675   -1.941015
     39          6           0        1.238012    2.718754   -1.931683
     40          6           0       -2.232482    1.062125    2.417900
     41          6           0        2.165584    3.404326   -0.947019
     42          6           0        1.327371    3.600271    0.322439
     43          6           0       -0.024646    3.789319    0.287640
     44          6           0       -0.846101    3.263024    1.335661
     45          6           0       -0.956278   -1.860419    2.673013
     46          6           0       -2.242609   -1.500057    2.293027
     47          6           0       -0.297341    2.516956    2.384374
     48          6           0       -2.832673   -2.156914    1.160146
     49          6           0        1.115587    2.372606    2.454586
     50          6           0       -3.717031   -1.255347    0.486620
     51          6           0        1.403661    1.105156    3.041277
     52          6           0        2.572691    0.454859    2.651883
     53          6           0        2.572174   -0.970279    2.555757
     54          6           0        1.399435   -1.669674    2.840356
     55          6           0        1.104476   -2.866756    2.094783
     56          6           0       -2.113781   -3.062547   -0.988122
     57          6           0       -0.817320   -3.475144   -1.416733
     58          6           0       -0.070329   -3.917307   -0.251526
     59          6           0        1.302989   -3.731071   -0.194425
     60          6           0        1.921649   -3.264255    1.029811
     61          6           0        3.078292   -2.467005    0.674540
     62          6           0        3.417583   -1.357320    1.442309
     63          6           0        3.910198   -0.147893    0.816321
     64          6           0        3.401099    0.995224    1.596832
     65          6           0        3.061279    2.171564    0.977294
     66          6           0        1.913381    2.886754    1.418331
     67          1           0       -3.235754    0.248245   -3.759421
     68          1           0       -4.968575    0.105229   -2.074364
     69          1           0       -5.126504   -0.289501    1.803197
     70          1           0       -3.509185   -0.261921    3.558446
     71          1           0        4.717170    1.499945   -1.861208
     72          1           0        4.285482    3.178830   -0.461214
     73          1           0        2.528905    4.352935   -1.354018
     74          1           0       -0.882023    4.816562   -1.458592
     75          1           0       -2.997765    4.129917   -0.755235
     76          1           0       -4.931616    1.856287    0.932108
 ---------------------------------------------------------------------

 The electronic state is 1-A.
 Alpha  occ. eigenvalues --  -10.21967 -10.21885 -10.21861 -10.21716 -10.21664
 Alpha  occ. eigenvalues --  -10.21622 -10.21584 -10.21584 -10.21558 -10.21551
 Alpha  occ. eigenvalues --  -10.21518 -10.21459 -10.21414 -10.21313 -10.21258
 Alpha  occ. eigenvalues --  -10.21145 -10.21130 -10.21042 -10.21011 -10.20934
 Alpha  occ. eigenvalues --  -10.20857 -10.20723 -10.20645 -10.20601 -10.20551
 Alpha  occ. eigenvalues --  -10.20498 -10.20497 -10.20494 -10.20486 -10.20472
 Alpha  occ. eigenvalues --  -10.20419 -10.20387 -10.20366 -10.20336 -10.20332
 Alpha  occ. eigenvalues --  -10.20300 -10.20291 -10.20289 -10.20282 -10.20277
 Alpha  occ. eigenvalues --  -10.20256 -10.20234 -10.20216 -10.20210 -10.20180
 Alpha  occ. eigenvalues --  -10.20158 -10.20113 -10.20106 -10.20056 -10.20035
 Alpha  occ. eigenvalues --  -10.19987 -10.19959 -10.19950 -10.19941 -10.19912
 Alpha  occ. eigenvalues --  -10.19836 -10.19802 -10.19753 -10.19710 -10.19694
 Alpha  occ. eigenvalues --  -10.19648 -10.19515 -10.19502 -10.19402 -10.19394
 Alpha  occ. eigenvalues --  -10.19191  -0.95833  -0.94314  -0.94185  -0.93386
 Alpha  occ. eigenvalues --   -0.91327  -0.90971  -0.90421  -0.90374  -0.89597
 Alpha  occ. eigenvalues --   -0.87291  -0.87162  -0.86424  -0.86158  -0.84853
 Alpha  occ. eigenvalues --   -0.83209  -0.82826  -0.80812  -0.80358  -0.79915
 Alpha  occ. eigenvalues --   -0.79684  -0.79254  -0.78330  -0.77934  -0.76970
 Alpha  occ. eigenvalues --   -0.76578  -0.74224  -0.74079  -0.73383  -0.73212
 Alpha  occ. eigenvalues --   -0.72424  -0.72315  -0.72029  -0.71830  -0.69827
 Alpha  occ. eigenvalues --   -0.69456  -0.67080  -0.65906  -0.65583  -0.65310
 Alpha  occ. eigenvalues --   -0.64473  -0.64221  -0.63815  -0.63327  -0.62607
 Alpha  occ. eigenvalues --   -0.61892  -0.61222  -0.60870  -0.60027  -0.59195
 Alpha  occ. eigenvalues --   -0.57357  -0.57180  -0.56521  -0.55822  -0.54966
 Alpha  occ. eigenvalues --   -0.54516  -0.53927  -0.53709  -0.53094  -0.52529
 Alpha  occ. eigenvalues --   -0.51927  -0.51706  -0.51373  -0.50801  -0.50090
 Alpha  occ. eigenvalues --   -0.49274  -0.48874  -0.48368  -0.48069  -0.48035
 Alpha  occ. eigenvalues --   -0.47555  -0.47281  -0.47067  -0.46360  -0.45632
 Alpha  occ. eigenvalues --   -0.45576  -0.45440  -0.44980  -0.44611  -0.44586
 Alpha  occ. eigenvalues --   -0.44161  -0.43952  -0.43888  -0.43484  -0.43340
 Alpha  occ. eigenvalues --   -0.43087  -0.42621  -0.42431  -0.41822  -0.41655
 Alpha  occ. eigenvalues --   -0.41334  -0.40974  -0.40819  -0.40463  -0.40031
 Alpha  occ. eigenvalues --   -0.39942  -0.39575  -0.39435  -0.38993  -0.38780
 Alpha  occ. eigenvalues --   -0.38591  -0.38426  -0.38291  -0.37905  -0.37475
 Alpha  occ. eigenvalues --   -0.37161  -0.36732  -0.36209  -0.35987  -0.35311
 Alpha  occ. eigenvalues --   -0.35115  -0.35046  -0.34837  -0.34577  -0.34386
 Alpha  occ. eigenvalues --   -0.34361  -0.34264  -0.34031  -0.33681  -0.33273
 Alpha  occ. eigenvalues --   -0.33118  -0.31764  -0.31361  -0.30270  -0.29780
 Alpha  occ. eigenvalues --   -0.29293  -0.27160  -0.26778  -0.26338  -0.26119
 Alpha  occ. eigenvalues --   -0.24525  -0.24306  -0.23323  -0.23006  -0.22595
 Alpha  occ. eigenvalues --   -0.21555  -0.20803  -0.20139
 Alpha virt. eigenvalues --   -0.10624  -0.09869  -0.09091  -0.08810  -0.06421
 Alpha virt. eigenvalues --   -0.05449  -0.04815  -0.03593  -0.03141  -0.02436
 Alpha virt. eigenvalues --   -0.02321  -0.01806  -0.00990  -0.00669   0.00693

 Mulliken charges:
               1
     1  C   -0.134956
     2  C   -0.144725
     3  C   -0.039070
     4  C    0.022705
     5  C    0.014825
     6  C    0.019165
     7  C   -0.122759
     8  C   -0.026938
     9  C   -0.012538
    10  C   -0.149055
    11  C   -0.000422
    12  C   -0.003373
    13  C   -0.010221
    14  C   -0.004460
    15  C   -0.002314
    16  C   -0.007997
    17  C   -0.007381
    18  C    0.016478
    19  C   -0.007036
    20  C   -0.005379
    21  C   -0.023525
    22  C    0.035740
    23  C   -0.028998
    24  C    0.010347
    25  C   -0.000125
    26  C   -0.003317
    27  C   -0.000462
    28  C   -0.011774
    29  C    0.011458
    30  C   -0.024818
    31  C   -0.134274
    32  C    0.006321
    33  C   -0.146759
    34  C   -0.020286
    35  C   -0.135255
    36  C   -0.136083
    37  C   -0.136029
    38  C   -0.027923
    39  C   -0.017512
    40  C    0.001363
    41  C   -0.145705
    42  C   -0.018291
    43  C   -0.026026
    44  C    0.057311
    45  C    0.015676
    46  C   -0.029202
    47  C   -0.009532
    48  C    0.022437
    49  C   -0.017155
    50  C    0.015297
    51  C   -0.007678
    52  C   -0.009411
    53  C   -0.003327
    54  C   -0.006522
    55  C   -0.002722
    56  C   -0.011549
    57  C   -0.008377
    58  C   -0.011688
    59  C   -0.005353
    60  C   -0.002158
    61  C   -0.004866
    62  C   -0.006734
    63  C    0.003605
    64  C    0.006856
    65  C   -0.023173
    66  C    0.055995
    67  H    0.162345
    68  H    0.150229
    69  H    0.147809
    70  H    0.159837
    71  H    0.163320
    72  H    0.153146
    73  H    0.155789
    74  H    0.155275
    75  H    0.156951
    76  H    0.154954
 Sum of Mulliken charges =  -0.00000

 Dipole moment (field-independent basis, Debye):
    X=             -3.9123    Y=              4.7145    Z=             -1.3859  Tot=              6.2812
 Quadrupole moment (field-independent basis, Debye-Ang):
   XX=           -341.0627   YY=           -368.0918   ZZ=           -374.0955
   XY=              1.5422   XZ=             -4.5264   YZ=             -8.0289

 Normal termination of Gaussian 16 at Wed Jul 20 09:59:34 2022.
