 Gaussian 16, Revision A.03,
 Gaussian 16:  ES64L-G16RevA.03 25-Dec-2016

 -------------------------------------------------
 #P opt b3lyp/6-311G(d, p) empiricaldispersion=GD3
 -------------------------------------------------

 -----
 force
 -----
 Symbolic Z-matrix:
 Charge =  0 Multiplicity = 1

 SCF Done:  E(RB3LYP) =  -2521.48405049     A.U. after   18 cycles
 SCF Done:  E(RB3LYP) =  -2521.49236672     A.U. after   16 cycles
 SCF Done:  E(RB3LYP) =  -2521.49258926     A.U. after   10 cycles
 SCF Done:  E(RB3LYP) =  -2521.49261793     A.U. after    9 cycles
 Optimization completed.
    -- Stationary point found.

                         Standard orientation:
 ---------------------------------------------------------------------
 Center     Atomic      Atomic             Coordinates (Angstroms)
 Number     Number       Type             X           Y           Z
 ---------------------------------------------------------------------
      1          6           0       -3.545988   -2.366711   -0.360744
      2          6           0       -3.867062   -1.116393   -1.262979
      3          6           0       -2.792341   -0.749992   -2.282904
      4          6           0       -1.705881   -1.507438   -2.601867
      5          6           0       -2.701687    0.662790   -2.412514
      6          6           0       -3.449422    1.280933   -1.340561
      7          6           0        2.809265   -0.374637   -2.754049
      8          6           0       -3.978960    0.228032   -0.517198
      9          6           0       -3.007229    2.488119   -0.798410
     10          6           0        3.994577   -0.330376   -1.688911
     11          6           0       -1.848789    3.150838   -1.363104
     12          6           0       -1.139827    2.545576   -2.404935
     13          6           0       -1.537400    1.251451   -2.901461
     14          6           0        0.487773    3.020547    1.940444
     15          6           0        0.293118    2.611641   -2.457741
     16          6           0        1.084627    3.579952    0.809661
     17          6           0        2.320426    3.029660    0.358879
     18          6           0        0.899259   -1.316181    2.921042
     19          6           0       -0.141205   -0.309666    3.294250
     20          6           0       -0.070910    1.073109    3.155508
     21          6           0        3.706926    0.923687   -0.916716
     22          6           0        2.820167    1.768867   -1.660667
     23          6           0        2.112243    0.981609   -2.627965
     24          6           0        0.816262    1.346007   -2.957432
     25          6           0       -0.361495    0.466834   -3.196811
     26          6           0       -0.448053   -0.914343   -3.008667
     27          6           0        0.619615   -1.847597   -2.586176
     28          6           0        1.974096   -1.562822   -2.311708
     29          6           0        2.629832   -2.261940   -1.290691
     30          6           0        3.911540   -1.621019   -0.816735
     31          6           0        3.977634   -1.467114    0.793155
     32          6           0        2.746512   -1.996823    1.483860
     33          6           0        4.136388   -0.039024    1.402489
     34          6           0        1.993845   -3.022947    0.945863
     35          6           0        1.933753   -3.177548   -0.513027
     36          6           0        0.620065   -3.561086   -0.860366
     37          6           0        3.063530    0.128018    2.569122
     38          6           0       -0.004284   -2.944263   -1.935616
     39          6           0       -1.511681   -2.918633   -2.105801
     40          6           0        2.197967   -1.112973    2.449222
     41          6           0       -2.364641   -3.334017   -0.828525
     42          6           0       -1.496359   -3.472655    0.410885
     43          6           0       -0.157217   -3.741957    0.381081
     44          6           0        0.706881   -3.305034    1.460903
     45          6           0        1.068374    1.872955    2.629069
     46          6           0        2.332003    1.438226    2.252562
     47          6           0        0.196791   -2.489530    2.474478
     48          6           0        2.941199    2.024969    1.092923
     49          6           0       -1.210493   -2.254953    2.533688
     50          6           0        3.767333    1.051404    0.441915
     51          6           0       -1.433277   -0.960108    3.088241
     52          6           0       -2.571312   -0.262254    2.688676
     53          6           0       -2.501312    1.160499    2.554595
     54          6           0       -1.294069    1.805092    2.810780
     55          6           0       -0.943345    2.963820    2.032383
     56          6           0        2.259405    2.900102   -1.074382
     57          6           0        0.984734    3.367333   -1.508356
     58          6           0        0.268599    3.880693   -0.352925
     59          6           0       -1.112530    3.771249   -0.280937
     60          6           0       -1.747107    3.374546    0.960686
     61          6           0       -2.945304    2.629787    0.636856
     62          6           0       -3.335594    1.560042    1.437165
     63          6           0       -3.895669    0.360655    0.849086
     64          6           0       -3.438874   -0.783726    1.658028
     65          6           0       -3.164261   -1.989810    1.064595
     66          6           0       -2.043775   -2.741425    1.510809
     67          1           0        3.185724   -0.521519   -3.771353
     68          1           0        4.962252   -0.269126   -2.192126
     69          1           0        5.148667    0.101653    1.787997
     70          1           0        3.538442    0.177458    3.553761
     71          1           0       -4.812840   -1.317722   -1.777536
     72          1           0       -4.458074   -2.966656   -0.330416
     73          1           0        4.748326   -2.273009   -1.076099
     74          1           0        4.833601   -2.070916    1.102449
     75          1           0       -2.806256   -4.303102   -1.066795
     76          1           0       -1.784163   -3.621346   -2.901996
 ---------------------------------------------------------------------

 The electronic state is 1-A.
 Alpha  occ. eigenvalues --  -10.21968 -10.21858 -10.21788 -10.21759 -10.21705
 Alpha  occ. eigenvalues --  -10.21643 -10.21590 -10.21400 -10.21364 -10.21355
 Alpha  occ. eigenvalues --  -10.21338 -10.21295 -10.21200 -10.21188 -10.21185
 Alpha  occ. eigenvalues --  -10.21132 -10.21026 -10.21001 -10.20914 -10.20894
 Alpha  occ. eigenvalues --  -10.20842 -10.20826 -10.20790 -10.20775 -10.20740
 Alpha  occ. eigenvalues --  -10.20678 -10.20617 -10.20615 -10.20602 -10.20571
 Alpha  occ. eigenvalues --  -10.20570 -10.20535 -10.20531 -10.20511 -10.20470
 Alpha  occ. eigenvalues --  -10.20464 -10.20446 -10.20400 -10.20341 -10.20332
 Alpha  occ. eigenvalues --  -10.20329 -10.20310 -10.20301 -10.20296 -10.20292
 Alpha  occ. eigenvalues --  -10.20280 -10.20277 -10.20231 -10.20228 -10.20181
 Alpha  occ. eigenvalues --  -10.20178 -10.20116 -10.20114 -10.20081 -10.20063
 Alpha  occ. eigenvalues --  -10.20002 -10.19992 -10.19954 -10.19938 -10.19924
 Alpha  occ. eigenvalues --  -10.19920 -10.19874 -10.19747 -10.19727 -10.19681
 Alpha  occ. eigenvalues --  -10.19613  -0.95964  -0.94589  -0.94143  -0.93583
 Alpha  occ. eigenvalues --   -0.91322  -0.91026  -0.90570  -0.90323  -0.89811
 Alpha  occ. eigenvalues --   -0.87485  -0.87221  -0.86572  -0.85940  -0.85062
 Alpha  occ. eigenvalues --   -0.83207  -0.82985  -0.80908  -0.80308  -0.80111
 Alpha  occ. eigenvalues --   -0.79782  -0.79256  -0.78400  -0.77884  -0.77347
 Alpha  occ. eigenvalues --   -0.76571  -0.74276  -0.74088  -0.73537  -0.73443
 Alpha  occ. eigenvalues --   -0.72613  -0.72342  -0.72141  -0.71989  -0.69942
 Alpha  occ. eigenvalues --   -0.69449  -0.66704  -0.66007  -0.65870  -0.65381
 Alpha  occ. eigenvalues --   -0.64914  -0.64129  -0.63806  -0.63353  -0.63241
 Alpha  occ. eigenvalues --   -0.61740  -0.61562  -0.60908  -0.60547  -0.58650
 Alpha  occ. eigenvalues --   -0.57429  -0.57008  -0.56610  -0.56353  -0.55403
 Alpha  occ. eigenvalues --   -0.54802  -0.53864  -0.53744  -0.52939  -0.52689
 Alpha  occ. eigenvalues --   -0.52045  -0.51817  -0.51513  -0.51040  -0.49911
 Alpha  occ. eigenvalues --   -0.49578  -0.48698  -0.48550  -0.48162  -0.47608
 Alpha  occ. eigenvalues --   -0.47295  -0.46990  -0.46899  -0.46533  -0.45821
 Alpha  occ. eigenvalues --   -0.45660  -0.45367  -0.45120  -0.44886  -0.44385
 Alpha  occ. eigenvalues --   -0.44257  -0.44046  -0.43733  -0.43670  -0.43164
 Alpha  occ. eigenvalues --   -0.43042  -0.42854  -0.42445  -0.42108  -0.41646
 Alpha  occ. eigenvalues --   -0.41479  -0.40997  -0.40859  -0.40616  -0.40137
 Alpha  occ. eigenvalues --   -0.39920  -0.39877  -0.39786  -0.39185  -0.38966
 Alpha  occ. eigenvalues --   -0.38633  -0.38254  -0.37906  -0.37862  -0.37246
 Alpha  occ. eigenvalues --   -0.36562  -0.36530  -0.36162  -0.35586  -0.35257
 Alpha  occ. eigenvalues --   -0.35064  -0.35027  -0.34841  -0.34775  -0.34576
 Alpha  occ. eigenvalues --   -0.34396  -0.34324  -0.33951  -0.33830  -0.33433
 Alpha  occ. eigenvalues --   -0.32926  -0.32614  -0.31550  -0.31239  -0.29894
 Alpha  occ. eigenvalues --   -0.28443  -0.27593  -0.27278  -0.26678  -0.25845
 Alpha  occ. eigenvalues --   -0.25089  -0.24464  -0.24147  -0.23325  -0.22519
 Alpha  occ. eigenvalues --   -0.21721  -0.21484  -0.19975
 Alpha virt. eigenvalues --   -0.11725  -0.09985  -0.09295  -0.07367  -0.06727
 Alpha virt. eigenvalues --   -0.05142  -0.04859  -0.03651  -0.03418  -0.03096
 Alpha virt. eigenvalues --   -0.02449  -0.01941  -0.01678   0.00171   0.00888

 Mulliken charges:
               1
     1  C   -0.133512
     2  C   -0.144547
     3  C   -0.007829
     4  C   -0.039049
     5  C    0.017071
     6  C    0.019954
     7  C   -0.131836
     8  C   -0.025018
     9  C   -0.010711
    10  C   -0.144890
    11  C    0.000022
    12  C   -0.005446
    13  C   -0.012641
    14  C   -0.003885
    15  C   -0.001489
    16  C   -0.007160
    17  C   -0.009012
    18  C    0.016416
    19  C   -0.004810
    20  C   -0.004497
    21  C    0.005921
    22  C    0.020191
    23  C   -0.031124
    24  C    0.008851
    25  C   -0.005092
    26  C    0.017589
    27  C    0.047400
    28  C   -0.012848
    29  C   -0.010903
    30  C   -0.131581
    31  C   -0.135161
    32  C   -0.003713
    33  C   -0.145911
    34  C    0.002168
    35  C   -0.002193
    36  C    0.006345
    37  C   -0.133625
    38  C   -0.047197
    39  C   -0.116579
    40  C   -0.009238
    41  C   -0.137138
    42  C   -0.021410
    43  C   -0.009248
    44  C   -0.004171
    45  C    0.017082
    46  C   -0.031602
    47  C    0.003195
    48  C    0.020080
    49  C   -0.017725
    50  C    0.003953
    51  C   -0.002958
    52  C   -0.010191
    53  C   -0.002425
    54  C   -0.006020
    55  C   -0.001974
    56  C   -0.008760
    57  C   -0.009336
    58  C   -0.012021
    59  C   -0.005263
    60  C   -0.002552
    61  C   -0.005385
    62  C   -0.005849
    63  C    0.000758
    64  C    0.011765
    65  C   -0.031178
    66  C    0.048684
    67  H    0.156895
    68  H    0.144173
    69  H    0.145062
    70  H    0.159096
    71  H    0.162779
    72  H    0.153902
    73  H    0.145206
    74  H    0.148319
    75  H    0.150768
    76  H    0.163054
 Sum of Mulliken charges =  -0.00000

 Dipole moment (field-independent basis, Debye):
    X=              2.3636    Y=             -3.9425    Z=             -1.5273  Tot=              4.8438
 Quadrupole moment (field-independent basis, Debye-Ang):
   XX=           -339.1535   YY=           -375.8816   ZZ=           -370.5148
   XY=              6.3996   XZ=              6.8812   YZ=              8.3089

 Normal termination of Gaussian 16 at Wed Jul 20 23:09:47 2022.
