 Gaussian 16, Revision A.03,
 Gaussian 16:  ES64L-G16RevA.03 25-Dec-2016

 -------------------------------------------------
 #P opt b3lyp/6-311G(d, p) empiricaldispersion=GD3
 -------------------------------------------------

 -----
 force
 -----
 Symbolic Z-matrix:
 Charge =  0 Multiplicity = 1

 SCF Done:  E(RB3LYP) =  -2516.54502928     A.U. after   19 cycles
 SCF Done:  E(RB3LYP) =  -2516.55138774     A.U. after   17 cycles
 SCF Done:  E(RB3LYP) =  -2516.55153256     A.U. after   10 cycles
 SCF Done:  E(RB3LYP) =  -2516.55155050     A.U. after   10 cycles
 Optimization completed.
    -- Stationary point found.

                         Standard orientation:
 ---------------------------------------------------------------------
 Center     Atomic      Atomic             Coordinates (Angstroms)
 Number     Number       Type             X           Y           Z
 ---------------------------------------------------------------------
      1          6           0        3.109400    2.323153   -0.723793
      2          6           0        3.472378    1.173753   -1.416820
      3          6           0        2.668881    0.712592   -2.529420
      4          6           0        1.498144    1.401241   -2.876816
      5          6           0        2.668881   -0.712592   -2.529420
      6          6           0        3.472378   -1.173753   -1.416820
      7          6           0       -2.797143   -0.000000   -2.432138
      8          6           0        3.936123    0.000000   -0.696032
      9          6           0        3.109400   -2.323153   -0.723793
     10          6           0       -4.023557   -0.000000   -1.498386
     11          6           0        1.968247   -3.107579   -1.161685
     12          6           0        1.188943   -2.641391   -2.229976
     13          6           0        1.498144   -1.401240   -2.876815
     14          6           0       -0.247244   -2.787419    2.206367
     15          6           0       -0.247245   -2.787418   -2.206367
     16          6           0       -0.850733   -3.478947    1.151302
     17          6           0       -2.167652   -3.078272    0.720290
     18          6           0       -0.853276    1.612717    2.788444
     19          6           0        0.248382    0.704475    3.160202
     20          6           0        0.248382   -0.704475    3.160202
     21          6           0       -3.775600   -1.250436   -0.685919
     22          6           0       -2.850342   -2.081517   -1.396584
     23          6           0       -2.179141   -1.275648   -2.435730
     24          6           0       -0.853276   -1.612719   -2.788445
     25          6           0        0.248383   -0.704474   -3.160203
     26          6           0        0.248383    0.704475   -3.160203
     27          6           0       -0.853276    1.612719   -2.788445
     28          6           0       -2.179141    1.275648   -2.435730
     29          6           0       -2.850342    2.081517   -1.396584
     30          6           0       -3.775600    1.250435   -0.685919
     31          6           0       -3.775603    1.250437    0.685920
     32          6           0       -2.850343    2.081518    1.396584
     33          6           0       -4.023558   -0.000000    1.498388
     34          6           0       -2.167652    3.078272    0.720290
     35          6           0       -2.167652    3.078272   -0.720289
     36          6           0       -0.850734    3.478949   -1.151302
     37          6           0       -2.797144   -0.000000    2.432135
     38          6           0       -0.247245    2.787418   -2.206367
     39          6           0        1.188943    2.641391   -2.229976
     40          6           0       -2.179141    1.275647    2.435730
     41          6           0        1.968246    3.107579   -1.161685
     42          6           0        1.322164    3.663333    0.000001
     43          6           0       -0.068094    3.849948   -0.000000
     44          6           0       -0.850733    3.478947    1.151302
     45          6           0       -0.853276   -1.612717    2.788444
     46          6           0       -2.179140   -1.275648    2.435730
     47          6           0       -0.247245    2.787419    2.206367
     48          6           0       -2.850343   -2.081518    1.396584
     49          6           0        1.188943    2.641392    2.229978
     50          6           0       -3.775602   -1.250438    0.685920
     51          6           0        1.498144    1.401242    2.876816
     52          6           0        2.668880    0.712592    2.529420
     53          6           0        2.668880   -0.712592    2.529420
     54          6           0        1.498144   -1.401241    2.876816
     55          6           0        1.188943   -2.641392    2.229978
     56          6           0       -2.167651   -3.078272   -0.720289
     57          6           0       -0.850733   -3.478949   -1.151302
     58          6           0       -0.068093   -3.849948   -0.000000
     59          6           0        1.322165   -3.663333    0.000001
     60          6           0        1.968247   -3.107580    1.161685
     61          6           0        3.109400   -2.323153    0.723793
     62          6           0        3.472378   -1.173753    1.416820
     63          6           0        3.936123    0.000000    0.696032
     64          6           0        3.472377    1.173753    1.416820
     65          6           0        3.109400    2.323153    0.723793
     66          6           0        1.968246    3.107580    1.161685
     67          1           0       -4.981572   -0.000000   -2.031549
     68          1           0       -4.981573   -0.000000    2.031551
 ---------------------------------------------------------------------

 The electronic state is 1-A.
 Alpha  occ. eigenvalues --  -10.24176 -10.24176 -10.24176 -10.24175 -10.23899
 Alpha  occ. eigenvalues --  -10.23899 -10.23852 -10.23852 -10.23268 -10.23267
 Alpha  occ. eigenvalues --  -10.23107 -10.23107 -10.23107 -10.23106 -10.23057
 Alpha  occ. eigenvalues --  -10.23055 -10.22813 -10.22813 -10.22811 -10.22811
 Alpha  occ. eigenvalues --  -10.22614 -10.22610 -10.22579 -10.22579 -10.22577
 Alpha  occ. eigenvalues --  -10.22577 -10.22550 -10.22549 -10.22035 -10.22035
 Alpha  occ. eigenvalues --  -10.21996 -10.21996 -10.21972 -10.21972 -10.21972
 Alpha  occ. eigenvalues --  -10.21972 -10.21950 -10.21897 -10.21782 -10.21782
 Alpha  occ. eigenvalues --  -10.21781 -10.21780 -10.21730 -10.21727 -10.21724
 Alpha  occ. eigenvalues --  -10.21724 -10.21559 -10.21559 -10.21503 -10.21503
 Alpha  occ. eigenvalues --  -10.21490 -10.21490 -10.21489 -10.21489 -10.21466
 Alpha  occ. eigenvalues --  -10.21466 -10.21209 -10.21209 -10.21200 -10.21199
 Alpha  occ. eigenvalues --  -10.21161 -10.21160 -10.21129 -10.21129 -10.20925
 Alpha  occ. eigenvalues --  -10.20925  -0.97949  -0.96439  -0.96408  -0.95374
 Alpha  occ. eigenvalues --   -0.93417  -0.93175  -0.92855  -0.92397  -0.91565
 Alpha  occ. eigenvalues --   -0.89304  -0.89173  -0.88572  -0.88251  -0.86956
 Alpha  occ. eigenvalues --   -0.85241  -0.84587  -0.82537  -0.82300  -0.81662
 Alpha  occ. eigenvalues --   -0.81642  -0.81120  -0.80183  -0.79630  -0.78807
 Alpha  occ. eigenvalues --   -0.78218  -0.75966  -0.75561  -0.75061  -0.74681
 Alpha  occ. eigenvalues --   -0.73738  -0.73736  -0.73711  -0.73469  -0.71516
 Alpha  occ. eigenvalues --   -0.70634  -0.68412  -0.67100  -0.66701  -0.66633
 Alpha  occ. eigenvalues --   -0.66616  -0.65844  -0.64886  -0.64668  -0.64662
 Alpha  occ. eigenvalues --   -0.63130  -0.63031  -0.61882  -0.61433  -0.59879
 Alpha  occ. eigenvalues --   -0.58711  -0.58042  -0.57468  -0.57202  -0.55738
 Alpha  occ. eigenvalues --   -0.55319  -0.55165  -0.54699  -0.53937  -0.53536
 Alpha  occ. eigenvalues --   -0.53166  -0.52568  -0.51939  -0.51641  -0.50507
 Alpha  occ. eigenvalues --   -0.50057  -0.49686  -0.49559  -0.49033  -0.48508
 Alpha  occ. eigenvalues --   -0.47771  -0.47748  -0.47305  -0.47282  -0.47079
 Alpha  occ. eigenvalues --   -0.46726  -0.46555  -0.45957  -0.45901  -0.45368
 Alpha  occ. eigenvalues --   -0.45150  -0.45146  -0.44582  -0.44388  -0.44033
 Alpha  occ. eigenvalues --   -0.43995  -0.43059  -0.42798  -0.42764  -0.42707
 Alpha  occ. eigenvalues --   -0.42610  -0.42039  -0.41883  -0.41193  -0.41122
 Alpha  occ. eigenvalues --   -0.41097  -0.41058  -0.40346  -0.40185  -0.40140
 Alpha  occ. eigenvalues --   -0.39826  -0.38697  -0.37760  -0.37246  -0.36992
 Alpha  occ. eigenvalues --   -0.36931  -0.36565  -0.36386  -0.36325  -0.35977
 Alpha  occ. eigenvalues --   -0.35971  -0.35899  -0.35798  -0.35447  -0.35434
 Alpha  occ. eigenvalues --   -0.35018  -0.34273  -0.33939  -0.31596  -0.30178
 Alpha  occ. eigenvalues --   -0.29801  -0.29328  -0.28521  -0.28448  -0.28052
 Alpha  occ. eigenvalues --   -0.27535  -0.26750  -0.25515  -0.23980  -0.23934
 Alpha  occ. eigenvalues --   -0.23744  -0.23355  -0.22947  -0.18599
 Alpha virt. eigenvalues --   -0.14591  -0.13610  -0.11725  -0.09795  -0.09561
 Alpha virt. eigenvalues --   -0.08710  -0.08066  -0.06780  -0.05398  -0.05157
 Alpha virt. eigenvalues --   -0.04207  -0.03800  -0.03444  -0.03201  -0.02339

 Mulliken charges:
               1
     1  C   -0.006003
     2  C    0.001958
     3  C   -0.007364
     4  C   -0.011965
     5  C   -0.007364
     6  C    0.001958
     7  C   -0.043777
     8  C   -0.000683
     9  C   -0.006003
    10  C   -0.186217
    11  C    0.006954
    12  C   -0.004517
    13  C   -0.011965
    14  C   -0.002482
    15  C   -0.002483
    16  C    0.004297
    17  C   -0.009492
    18  C   -0.007490
    19  C    0.013574
    20  C    0.013574
    21  C    0.000711
    22  C    0.013951
    23  C    0.050420
    24  C   -0.007487
    25  C    0.013573
    26  C    0.013573
    27  C   -0.007487
    28  C    0.050420
    29  C    0.013951
    30  C    0.000711
    31  C    0.000711
    32  C    0.013950
    33  C   -0.186217
    34  C   -0.009492
    35  C   -0.009493
    36  C    0.004298
    37  C   -0.043777
    38  C   -0.002483
    39  C   -0.004517
    40  C    0.050422
    41  C    0.006954
    42  C   -0.018621
    43  C   -0.010501
    44  C    0.004297
    45  C   -0.007490
    46  C    0.050422
    47  C   -0.002482
    48  C    0.013950
    49  C   -0.004518
    50  C    0.000711
    51  C   -0.011965
    52  C   -0.007364
    53  C   -0.007364
    54  C   -0.011965
    55  C   -0.004518
    56  C   -0.009493
    57  C    0.004298
    58  C   -0.010501
    59  C   -0.018621
    60  C    0.006955
    61  C   -0.006003
    62  C    0.001958
    63  C   -0.000683
    64  C    0.001958
    65  C   -0.006003
    66  C    0.006955
    67  H    0.174693
    68  H    0.174693
 Sum of Mulliken charges =  -0.00000

 Dipole moment (field-independent basis, Debye):
    X=             -4.5057    Y=             -0.0000    Z=              0.0000  Tot=              4.5057
 Quadrupole moment (field-independent basis, Debye-Ang):
   XX=           -354.8785   YY=           -376.2274   ZZ=           -368.4755
   XY=             -0.0000   XZ=             -0.0001   YZ=              0.0000

 Normal termination of Gaussian 16 at Thu Jul 21 02:31:06 2022.
