 Gaussian 16, Revision A.03,
 Gaussian 16:  ES64L-G16RevA.03 25-Dec-2016

 -------------------------------------------------
 #P opt b3lyp/6-311G(d, p) empiricaldispersion=GD3
 -------------------------------------------------

 -----
 force
 -----
 Symbolic Z-matrix:
 Charge =  0 Multiplicity = 1

 SCF Done:  E(RB3LYP) =  -2516.57270884     A.U. after   21 cycles
 SCF Done:  E(RB3LYP) =  -2516.57953306     A.U. after   16 cycles
 SCF Done:  E(RB3LYP) =  -2516.57972085     A.U. after   10 cycles
 SCF Done:  E(RB3LYP) =  -2516.57974369     A.U. after    9 cycles
 Optimization completed.
    -- Stationary point found.

                         Standard orientation:
 ---------------------------------------------------------------------
 Center     Atomic      Atomic             Coordinates (Angstroms)
 Number     Number       Type             X           Y           Z
 ---------------------------------------------------------------------
      1          6           0       -3.068125    2.323935    0.837244
      2          6           0       -3.403193    1.173646    1.542288
      3          6           0       -2.548339    0.715542    2.623682
      4          6           0       -1.367757    1.392087    2.921150
      5          6           0       -2.548339   -0.715542    2.623682
      6          6           0       -3.403193   -1.173646    1.542288
      7          6           0        3.065510    0.000000    2.525139
      8          6           0       -3.890134    0.000000    0.842054
      9          6           0       -3.068125   -2.323934    0.837244
     10          6           0        4.106567    0.000000    1.323124
     11          6           0       -1.915818   -3.102214    1.232534
     12          6           0       -1.087308   -2.636894    2.255877
     13          6           0       -1.367757   -1.392087    2.921150
     14          6           0        0.159711   -2.811948   -2.241826
     15          6           0        0.341339   -2.787634    2.168617
     16          6           0        0.803986   -3.510486   -1.221190
     17          6           0        2.125636   -3.110226   -0.835383
     18          6           0        0.758603    1.628949   -2.855929
     19          6           0       -0.356074    0.700144   -3.181322
     20          6           0       -0.356074   -0.700144   -3.181322
     21          6           0        3.771175   -1.242798    0.523067
     22          6           0        2.869227   -2.061760    1.256549
     23          6           0        2.272911   -1.298635    2.331063
     24          6           0        0.986518   -1.610092    2.734337
     25          6           0       -0.107541   -0.696467    3.179033
     26          6           0       -0.107541    0.696467    3.179033
     27          6           0        0.986518    1.610092    2.734337
     28          6           0        2.272911    1.298635    2.331063
     29          6           0        2.869227    2.061759    1.256549
     30          6           0        3.771175    1.242798    0.523067
     31          6           0        3.716071    1.253401   -0.863298
     32          6           0        2.779784    2.112682   -1.542330
     33          6           0        3.732716    0.000000   -1.582523
     34          6           0        2.125636    3.110226   -0.835383
     35          6           0        2.172470    3.087679    0.607253
     36          6           0        0.897426    3.493473    1.105144
     37          6           0        2.717293    0.000000   -2.540257
     38          6           0        0.341339    2.787634    2.168617
     39          6           0       -1.087308    2.636894    2.255877
     40          6           0        2.080447    1.317083   -2.555852
     41          6           0       -1.915818    3.102214    1.232534
     42          6           0       -1.309069    3.658207    0.034422
     43          6           0        0.058419    3.858590   -0.022173
     44          6           0        0.803986    3.510486   -1.221190
     45          6           0        0.758603   -1.628949   -2.855929
     46          6           0        2.080447   -1.317083   -2.555852
     47          6           0        0.159711    2.811948   -2.241826
     48          6           0        2.779783   -2.112682   -1.542330
     49          6           0       -1.266447    2.647667   -2.199302
     50          6           0        3.716071   -1.253401   -0.863298
     51          6           0       -1.594243    1.394324   -2.827462
     52          6           0       -2.743055    0.715749   -2.433862
     53          6           0       -2.743055   -0.715749   -2.433862
     54          6           0       -1.594243   -1.394324   -2.827462
     55          6           0       -1.266447   -2.647667   -2.199302
     56          6           0        2.172469   -3.087679    0.607253
     57          6           0        0.897425   -3.493473    1.105144
     58          6           0        0.058419   -3.858590   -0.022173
     59          6           0       -1.309069   -3.658207    0.034422
     60          6           0       -2.009267   -3.106527   -1.105256
     61          6           0       -3.123108   -2.322917   -0.615055
     62          6           0       -3.512965   -1.173171   -1.289923
     63          6           0       -3.946146    0.000000   -0.554174
     64          6           0       -3.512965    1.173171   -1.289923
     65          6           0       -3.123108    2.322917   -0.615055
     66          6           0       -2.009267    3.106527   -1.105256
     67          1           0        3.566908    0.000000    3.496687
     68          1           0        5.141309    0.000000    1.677965
 ---------------------------------------------------------------------

 The electronic state is 1-A.
 Alpha  occ. eigenvalues --  -10.23698 -10.23648 -10.23382 -10.23381 -10.23324
 Alpha  occ. eigenvalues --  -10.23324 -10.23272 -10.23192 -10.23154 -10.23150
 Alpha  occ. eigenvalues --  -10.23139 -10.22723 -10.22574 -10.22574 -10.22542
 Alpha  occ. eigenvalues --  -10.22539 -10.22367 -10.22367 -10.22344 -10.22344
 Alpha  occ. eigenvalues --  -10.22311 -10.22247 -10.22244 -10.22229 -10.22179
 Alpha  occ. eigenvalues --  -10.22179 -10.22160 -10.22151 -10.22131 -10.22131
 Alpha  occ. eigenvalues --  -10.22127 -10.22127 -10.22126 -10.22123 -10.22112
 Alpha  occ. eigenvalues --  -10.22110 -10.22079 -10.22079 -10.22071 -10.22069
 Alpha  occ. eigenvalues --  -10.22064 -10.22064 -10.22018 -10.22018 -10.22008
 Alpha  occ. eigenvalues --  -10.22008 -10.21923 -10.21922 -10.21913 -10.21912
 Alpha  occ. eigenvalues --  -10.21875 -10.21874 -10.21860 -10.21819 -10.21788
 Alpha  occ. eigenvalues --  -10.21772 -10.21772 -10.21745 -10.21745 -10.21696
 Alpha  occ. eigenvalues --  -10.21696 -10.21695 -10.21655 -10.21609 -10.21609
 Alpha  occ. eigenvalues --  -10.20771  -0.97904  -0.96500  -0.96443  -0.95358
 Alpha  occ. eigenvalues --   -0.93483  -0.93299  -0.92444  -0.92382  -0.91571
 Alpha  occ. eigenvalues --   -0.89516  -0.89113  -0.88448  -0.88167  -0.86906
 Alpha  occ. eigenvalues --   -0.84935  -0.84770  -0.82848  -0.82191  -0.81786
 Alpha  occ. eigenvalues --   -0.81669  -0.80896  -0.80194  -0.79689  -0.78989
 Alpha  occ. eigenvalues --   -0.78015  -0.75893  -0.75741  -0.74940  -0.74683
 Alpha  occ. eigenvalues --   -0.73975  -0.73683  -0.73643  -0.73587  -0.71447
 Alpha  occ. eigenvalues --   -0.70789  -0.68139  -0.67189  -0.66707  -0.66680
 Alpha  occ. eigenvalues --   -0.66375  -0.65436  -0.65422  -0.65074  -0.64639
 Alpha  occ. eigenvalues --   -0.63175  -0.63084  -0.61513  -0.61324  -0.59750
 Alpha  occ. eigenvalues --   -0.58645  -0.57899  -0.57582  -0.56849  -0.55635
 Alpha  occ. eigenvalues --   -0.55463  -0.55236  -0.54679  -0.54117  -0.54030
 Alpha  occ. eigenvalues --   -0.53226  -0.52152  -0.51737  -0.51176  -0.50426
 Alpha  occ. eigenvalues --   -0.49834  -0.49631  -0.49117  -0.48747  -0.48480
 Alpha  occ. eigenvalues --   -0.47834  -0.47618  -0.47542  -0.47121  -0.47109
 Alpha  occ. eigenvalues --   -0.46616  -0.46452  -0.46183  -0.45779  -0.45367
 Alpha  occ. eigenvalues --   -0.45126  -0.44884  -0.44728  -0.44528  -0.44180
 Alpha  occ. eigenvalues --   -0.43739  -0.43183  -0.43131  -0.42836  -0.42482
 Alpha  occ. eigenvalues --   -0.42255  -0.41995  -0.41987  -0.41643  -0.41538
 Alpha  occ. eigenvalues --   -0.41375  -0.40581  -0.40023  -0.40016  -0.39864
 Alpha  occ. eigenvalues --   -0.39684  -0.38409  -0.37968  -0.37696  -0.37032
 Alpha  occ. eigenvalues --   -0.36989  -0.36953  -0.36707  -0.36446  -0.36253
 Alpha  occ. eigenvalues --   -0.36186  -0.35960  -0.35610  -0.35371  -0.34821
 Alpha  occ. eigenvalues --   -0.34676  -0.34532  -0.33634  -0.31664  -0.30917
 Alpha  occ. eigenvalues --   -0.30198  -0.29338  -0.28833  -0.28177  -0.28103
 Alpha  occ. eigenvalues --   -0.27110  -0.26609  -0.25036  -0.24507  -0.24229
 Alpha  occ. eigenvalues --   -0.23807  -0.23359  -0.22976  -0.21112
 Alpha virt. eigenvalues --   -0.13778  -0.13215  -0.11777  -0.09828  -0.09457
 Alpha virt. eigenvalues --   -0.09100  -0.07327  -0.05777  -0.05197  -0.04704
 Alpha virt. eigenvalues --   -0.04198  -0.03726  -0.03563  -0.03349  -0.01854

 Mulliken charges:
               1
     1  C   -0.002977
     2  C   -0.001486
     3  C   -0.003713
     4  C   -0.004117
     5  C   -0.003713
     6  C   -0.001486
     7  C   -0.122389
     8  C    0.000522
     9  C   -0.002977
    10  C   -0.165531
    11  C    0.005218
    12  C   -0.000380
    13  C   -0.004117
    14  C   -0.001025
    15  C   -0.003190
    16  C   -0.001594
    17  C   -0.004470
    18  C    0.000474
    19  C    0.008264
    20  C    0.008264
    21  C   -0.014029
    22  C    0.034950
    23  C   -0.031128
    24  C    0.018598
    25  C   -0.002048
    26  C   -0.002048
    27  C    0.018598
    28  C   -0.031128
    29  C    0.034950
    30  C   -0.014029
    31  C    0.021545
    32  C   -0.013102
    33  C   -0.042624
    34  C   -0.004470
    35  C   -0.006144
    36  C   -0.002295
    37  C   -0.007160
    38  C   -0.003190
    39  C   -0.000380
    40  C    0.018575
    41  C    0.005218
    42  C   -0.003003
    43  C   -0.005892
    44  C   -0.001594
    45  C    0.000474
    46  C    0.018575
    47  C   -0.001025
    48  C   -0.013102
    49  C   -0.001632
    50  C    0.021545
    51  C   -0.003919
    52  C   -0.003507
    53  C   -0.003507
    54  C   -0.003919
    55  C   -0.001632
    56  C   -0.006144
    57  C   -0.002295
    58  C   -0.005892
    59  C   -0.003003
    60  C    0.004476
    61  C   -0.000934
    62  C   -0.001283
    63  C   -0.001302
    64  C   -0.001283
    65  C   -0.000934
    66  C    0.004476
    67  H    0.169056
    68  H    0.168966
 Sum of Mulliken charges =  -0.00000

 Dipole moment (field-independent basis, Debye):
    X=              2.0678    Y=             -0.0000    Z=              1.3487  Tot=              2.4687
 Quadrupole moment (field-independent basis, Debye-Ang):
   XX=           -360.8004   YY=           -373.3249   ZZ=           -366.4886
   XY=              0.0000   XZ=              9.4538   YZ=             -0.0000

 Normal termination of Gaussian 16 at Wed Jul 20 12:52:38 2022.
