 Gaussian 16, Revision A.03,
 Gaussian 16:  ES64L-G16RevA.03 25-Dec-2016

 -------------------------------------------------
 #P opt b3lyp/6-311G(d, p) empiricaldispersion=GD3
 -------------------------------------------------

 -----
 force
 -----
 Symbolic Z-matrix:
 Charge =  0 Multiplicity = 1

 SCF Done:  E(RB3LYP) =  -2519.03119236     A.U. after   18 cycles
 SCF Done:  E(RB3LYP) =  -2519.03922824     A.U. after   16 cycles
 SCF Done:  E(RB3LYP) =  -2519.03943982     A.U. after    9 cycles
 SCF Done:  E(RB3LYP) =  -2519.03946797     A.U. after    9 cycles
 Optimization completed.
    -- Stationary point found.

                         Standard orientation:
 ---------------------------------------------------------------------
 Center     Atomic      Atomic             Coordinates (Angstroms)
 Number     Number       Type             X           Y           Z
 ---------------------------------------------------------------------
      1          6           0        3.251632   -2.236655    0.535795
      2          6           0        3.557589   -1.127730    1.315986
      3          6           0        2.734782   -0.805997    2.471919
      4          6           0        1.609286   -1.572711    2.770780
      5          6           0        2.659237    0.615620    2.590788
      6          6           0        3.426546    1.206278    1.504869
      7          6           0       -2.908888   -0.406551    2.697041
      8          6           0        3.947113    0.121647    0.693220
      9          6           0        2.987003    2.380061    0.906137
     10          6           0       -4.008715   -0.364693    1.542988
     11          6           0        1.817908    3.060235    1.416056
     12          6           0        1.080020    2.471338    2.453747
     13          6           0        1.463421    1.197557    3.003562
     14          6           0       -0.414059    3.130286   -2.180198
     15          6           0       -0.342943    2.537423    2.439274
     16          6           0       -1.101374    3.796724   -0.918811
     17          6           0       -2.301380    3.008142   -0.444999
     18          6           0       -0.776574   -1.447574   -2.900936
     19          6           0        0.279100   -0.450486   -3.220417
     20          6           0        0.198794    0.935604   -3.077356
     21          6           0       -3.750251    0.936452    0.817692
     22          6           0       -2.859178    1.731558    1.570816
     23          6           0       -2.185562    0.937812    2.571821
     24          6           0       -0.903339    1.288268    2.948511
     25          6           0        0.257989    0.411564    3.269098
     26          6           0        0.331737   -0.975854    3.151274
     27          6           0       -0.735903   -1.908599    2.681807
     28          6           0       -2.055736   -1.634713    2.359878
     29          6           0       -2.655832   -2.327423    1.244604
     30          6           0       -3.628070   -1.492845    0.615019
     31          6           0       -3.635308   -1.373924   -0.756458
     32          6           0       -2.673299   -2.093118   -1.525989
     33          6           0       -4.017949   -0.102885   -1.481002
     34          6           0       -1.954805   -3.137514   -0.945581
     35          6           0       -1.943469   -3.256014    0.488667
     36          6           0       -0.630726   -3.642781    0.892703
     37          6           0       -2.936192    0.044470   -2.637078
     38          6           0       -0.058174   -2.996951    1.986541
     39          6           0        1.361117   -2.773971    2.017082
     40          6           0       -2.088157   -1.226280   -2.519513
     41          6           0        2.160342   -3.107950    0.918414
     42          6           0        1.527228   -3.598531   -0.289090
     43          6           0        0.167978   -3.865967   -0.299911
     44          6           0       -0.649334   -3.453550   -1.426836
     45          6           0       -0.951276    1.751996   -2.639081
     46          6           0       -2.213361    1.361987   -2.324111
     47          6           0       -0.091667   -2.638128   -2.410077
     48          6           0       -2.903676    2.015703   -1.192650
     49          6           0        1.326064   -2.414184   -2.428863
     50          6           0       -3.752940    1.065552   -0.560651
     51          6           0        1.562616   -1.101204   -2.973582
     52          6           0        2.695477   -0.397718   -2.577313
     53          6           0        2.619034    1.026576   -2.452131
     54          6           0        1.409628    1.672027   -2.722588
     55          6           0        1.063476    2.861022   -2.011124
     56          6           0       -2.241571    2.828427    0.957251
     57          6           0       -0.971738    3.272966    1.435502
     58          6           0       -0.231723    3.814128    0.337197
     59          6           0        1.129085    3.685010    0.311731
     60          6           0        1.816308    3.260993   -0.926687
     61          6           0        2.980238    2.501362   -0.540077
     62          6           0        3.417650    1.435516   -1.321758
     63          6           0        3.941490    0.235102   -0.699764
     64          6           0        3.538736   -0.901864   -1.509071
     65          6           0        3.241931   -2.121132   -0.911083
     66          6           0        2.142751   -2.920809   -1.411275
     67          1           0       -3.359587   -0.510665    3.687721
     68          1           0       -5.024401   -0.449029    1.937839
     69          1           0       -5.037879   -0.120368   -1.874231
     70          1           0       -3.407752    0.104368   -3.621761
     71          1           0       -1.389060    4.812247   -1.206199
     72          1           0       -0.562138    3.824865   -3.013622
 ---------------------------------------------------------------------

 The electronic state is 1-A.
 Alpha  occ. eigenvalues --  -10.22622 -10.22493 -10.22457 -10.22441 -10.22439
 Alpha  occ. eigenvalues --  -10.22352 -10.22290 -10.22289 -10.22212 -10.22170
 Alpha  occ. eigenvalues --  -10.22146 -10.21991 -10.21902 -10.21855 -10.21840
 Alpha  occ. eigenvalues --  -10.21696 -10.21652 -10.21619 -10.21525 -10.21420
 Alpha  occ. eigenvalues --  -10.21404 -10.21363 -10.21309 -10.21276 -10.21273
 Alpha  occ. eigenvalues --  -10.21270 -10.21268 -10.21245 -10.21225 -10.21204
 Alpha  occ. eigenvalues --  -10.21200 -10.21188 -10.21187 -10.21185 -10.21172
 Alpha  occ. eigenvalues --  -10.21169 -10.21141 -10.21140 -10.21138 -10.21135
 Alpha  occ. eigenvalues --  -10.21130 -10.21117 -10.21107 -10.21078 -10.21075
 Alpha  occ. eigenvalues --  -10.21066 -10.21064 -10.21040 -10.21037 -10.20999
 Alpha  occ. eigenvalues --  -10.20989 -10.20979 -10.20957 -10.20886 -10.20833
 Alpha  occ. eigenvalues --  -10.20806 -10.20800 -10.20793 -10.20729 -10.20709
 Alpha  occ. eigenvalues --  -10.20696 -10.20688 -10.20685 -10.20668 -10.20440
 Alpha  occ. eigenvalues --  -10.20379  -0.96795  -0.95374  -0.95267  -0.94272
 Alpha  occ. eigenvalues --   -0.92342  -0.92170  -0.91297  -0.91085  -0.90563
 Alpha  occ. eigenvalues --   -0.88432  -0.87966  -0.87374  -0.87076  -0.85835
 Alpha  occ. eigenvalues --   -0.84079  -0.83699  -0.81771  -0.81322  -0.80764
 Alpha  occ. eigenvalues --   -0.80580  -0.80039  -0.79255  -0.78649  -0.78088
 Alpha  occ. eigenvalues --   -0.77218  -0.75042  -0.74844  -0.74151  -0.73830
 Alpha  occ. eigenvalues --   -0.73077  -0.72973  -0.72822  -0.72774  -0.70477
 Alpha  occ. eigenvalues --   -0.70286  -0.67573  -0.66246  -0.66088  -0.66044
 Alpha  occ. eigenvalues --   -0.65488  -0.64625  -0.64336  -0.64236  -0.63459
 Alpha  occ. eigenvalues --   -0.62440  -0.62374  -0.61795  -0.61014  -0.59417
 Alpha  occ. eigenvalues --   -0.58422  -0.57753  -0.56699  -0.56099  -0.55264
 Alpha  occ. eigenvalues --   -0.54646  -0.54609  -0.53942  -0.53630  -0.53412
 Alpha  occ. eigenvalues --   -0.52561  -0.52074  -0.51415  -0.50991  -0.50238
 Alpha  occ. eigenvalues --   -0.49670  -0.49051  -0.48794  -0.48662  -0.47846
 Alpha  occ. eigenvalues --   -0.47707  -0.47287  -0.47263  -0.47053  -0.46441
 Alpha  occ. eigenvalues --   -0.45996  -0.45807  -0.45440  -0.45148  -0.44810
 Alpha  occ. eigenvalues --   -0.44732  -0.44459  -0.44029  -0.43878  -0.43756
 Alpha  occ. eigenvalues --   -0.43550  -0.43080  -0.42675  -0.42351  -0.42214
 Alpha  occ. eigenvalues --   -0.41800  -0.41332  -0.40988  -0.40678  -0.40583
 Alpha  occ. eigenvalues --   -0.40316  -0.40250  -0.39940  -0.39557  -0.39164
 Alpha  occ. eigenvalues --   -0.39051  -0.38942  -0.38491  -0.38432  -0.37623
 Alpha  occ. eigenvalues --   -0.36707  -0.36515  -0.36223  -0.35773  -0.35719
 Alpha  occ. eigenvalues --   -0.35375  -0.35234  -0.35143  -0.34920  -0.34707
 Alpha  occ. eigenvalues --   -0.34483  -0.34177  -0.33784  -0.33474  -0.32651
 Alpha  occ. eigenvalues --   -0.32193  -0.31237  -0.30205  -0.28340  -0.28053
 Alpha  occ. eigenvalues --   -0.27634  -0.26768  -0.26218  -0.25625  -0.24919
 Alpha  occ. eigenvalues --   -0.24262  -0.23705  -0.22907  -0.22701  -0.22138
 Alpha  occ. eigenvalues --   -0.20207
 Alpha virt. eigenvalues --   -0.12213  -0.11119  -0.10499  -0.08520  -0.07709
 Alpha virt. eigenvalues --   -0.06846  -0.05740  -0.05645  -0.04331  -0.03658
 Alpha virt. eigenvalues --   -0.03319  -0.02854  -0.02679  -0.01996  -0.00423

 Mulliken charges:
               1
     1  C   -0.004162
     2  C   -0.003938
     3  C   -0.005248
     4  C   -0.004516
     5  C   -0.005920
     6  C   -0.003472
     7  C   -0.125068
     8  C   -0.000143
     9  C   -0.002767
    10  C   -0.170918
    11  C    0.002714
    12  C   -0.001737
    13  C   -0.007149
    14  C   -0.132842
    15  C   -0.010149
    16  C   -0.156079
    17  C   -0.021478
    18  C    0.014866
    19  C   -0.004981
    20  C    0.034948
    21  C   -0.000555
    22  C    0.029749
    23  C   -0.024175
    24  C    0.016489
    25  C   -0.002380
    26  C   -0.003422
    27  C    0.016840
    28  C   -0.026234
    29  C    0.034085
    30  C   -0.005769
    31  C   -0.003621
    32  C    0.032240
    33  C   -0.170394
    34  C   -0.009590
    35  C   -0.011106
    36  C   -0.004791
    37  C   -0.117815
    38  C   -0.002492
    39  C   -0.002775
    40  C   -0.025719
    41  C    0.002222
    42  C   -0.002960
    43  C   -0.012364
    44  C   -0.005577
    45  C   -0.056872
    46  C   -0.008585
    47  C   -0.003039
    48  C    0.035499
    49  C   -0.002079
    50  C   -0.010176
    51  C   -0.006013
    52  C   -0.004685
    53  C   -0.007639
    54  C    0.011926
    55  C   -0.025515
    56  C    0.014239
    57  C    0.010467
    58  C   -0.017668
    59  C    0.001327
    60  C    0.011328
    61  C   -0.006684
    62  C   -0.003415
    63  C   -0.004480
    64  C   -0.002655
    65  C   -0.003790
    66  C    0.001808
    67  H    0.166166
    68  H    0.159683
    69  H    0.158865
    70  H    0.163054
    71  H    0.166914
    72  H    0.170171
 Sum of Mulliken charges =  -0.00000

 Dipole moment (field-independent basis, Debye):
    X=             -5.0092    Y=              2.0332    Z=             -0.9897  Tot=              5.4959
 Quadrupole moment (field-independent basis, Debye-Ang):
   XX=           -357.6809   YY=           -370.1897   ZZ=           -364.2569
   XY=             -2.2803   XZ=              0.6655   YZ=             -7.9610

 Normal termination of Gaussian 16 at Wed Jul 20 03:08:19 2022.
