 Gaussian 16, Revision A.03,
 Gaussian 16:  ES64L-G16RevA.03 25-Dec-2016

 -------------------------------------------------
 #P opt b3lyp/6-311G(d, p) empiricaldispersion=GD3
 -------------------------------------------------

 -----
 force
 -----
 Symbolic Z-matrix:
 Charge =  0 Multiplicity = 1

 SCF Done:  E(RB3LYP) =  -2519.03752677     A.U. after   18 cycles
 SCF Done:  E(RB3LYP) =  -2519.04560662     A.U. after   16 cycles
 SCF Done:  E(RB3LYP) =  -2519.04580758     A.U. after    9 cycles
 SCF Done:  E(RB3LYP) =  -2519.04583224     A.U. after    9 cycles
 Optimization completed.
    -- Stationary point found.

                         Standard orientation:
 ---------------------------------------------------------------------
 Center     Atomic      Atomic             Coordinates (Angstroms)
 Number     Number       Type             X           Y           Z
 ---------------------------------------------------------------------
      1          6           0       -3.207800    2.133819    0.726671
      2          6           0       -3.534182    0.969504    1.418254
      3          6           0       -2.705121    0.554231    2.525130
      4          6           0       -1.568326    1.291056    2.855094
      5          6           0       -2.636632   -0.874855    2.531703
      6          6           0       -3.425224   -1.374564    1.417342
      7          6           0        2.948160    0.103727    2.676481
      8          6           0       -3.939847   -0.224852    0.697873
      9          6           0       -3.006752   -2.506114    0.726641
     10          6           0        4.045250    0.152949    1.519120
     11          6           0       -1.832927   -3.226774    1.168848
     12          6           0       -1.069396   -2.722077    2.228684
     13          6           0       -1.436450   -1.491116    2.877132
     14          6           0        0.364417   -2.802307   -2.203294
     15          6           0        0.364417   -2.802307    2.203294
     16          6           0        0.998882   -3.479411   -1.163702
     17          6           0        2.267610   -3.002354   -0.719663
     18          6           0        0.776544    1.614284   -2.768128
     19          6           0       -0.289759    0.656831   -3.167868
     20          6           0       -0.223658   -0.735187   -3.187670
     21          6           0        3.776721   -1.081092    0.688626
     22          6           0        2.885478   -1.948150    1.389940
     23          6           0        2.218626   -1.224039    2.445742
     24          6           0        0.930601   -1.596230    2.795926
     25          6           0       -0.223658   -0.735187    3.187670
     26          6           0       -0.289759    0.656831    3.167868
     27          6           0        0.776544    1.614284    2.768128
     28          6           0        2.100448    1.357825    2.436025
     29          6           0        2.693953    2.131926    1.389406
     30          6           0        3.672924    1.359650    0.686416
     31          6           0        3.672924    1.359650   -0.686416
     32          6           0        2.693953    2.131926   -1.389406
     33          6           0        4.045250    0.152949   -1.519120
     34          6           0        1.969178    3.120950   -0.719355
     35          6           0        1.969178    3.120950    0.719355
     36          6           0        0.682757    3.502083    1.166211
     37          6           0        2.948160    0.103727   -2.676481
     38          6           0        0.112740    2.762788    2.170352
     39          6           0       -1.330738    2.545543    2.198740
     40          6           0        2.100448    1.357825   -2.436025
     41          6           0       -2.137101    2.976729    1.170720
     42          6           0       -1.639242    3.832636    0.000000
     43          6           0       -0.100576    4.127704    0.000000
     44          6           0        0.682757    3.502083   -1.166211
     45          6           0        0.930601   -1.596230   -2.795926
     46          6           0        2.218626   -1.224039   -2.445742
     47          6           0        0.112740    2.762788   -2.170352
     48          6           0        2.885478   -1.948150   -1.389940
     49          6           0       -1.330738    2.545543   -2.198740
     50          6           0        3.776721   -1.081092   -0.688626
     51          6           0       -1.568326    1.291056   -2.855094
     52          6           0       -2.705121    0.554231   -2.525130
     53          6           0       -2.636632   -0.874855   -2.531703
     54          6           0       -1.436450   -1.491116   -2.877132
     55          6           0       -1.069396   -2.722077   -2.228684
     56          6           0        2.267610   -3.002354    0.719663
     57          6           0        0.998882   -3.479411    1.163702
     58          6           0        0.225517   -3.876709    0.000000
     59          6           0       -1.153144   -3.747728    0.000000
     60          6           0       -1.832927   -3.226774   -1.168848
     61          6           0       -3.006752   -2.506114   -0.726641
     62          6           0       -3.425224   -1.374564   -1.417342
     63          6           0       -3.939847   -0.224852   -0.697873
     64          6           0       -3.534182    0.969504   -1.418254
     65          6           0       -3.207800    2.133819   -0.726671
     66          6           0       -2.137101    2.976729   -1.170720
     67          1           0        3.402991    0.125945    3.670393
     68          1           0        5.061518    0.194835    1.919205
     69          1           0        5.061518    0.194835   -1.919205
     70          1           0        3.402991    0.125945   -3.670393
     71          1           0        0.036650    5.213225    0.000000
     72          1           0       -2.165496    4.792512    0.000000
 ---------------------------------------------------------------------

 The electronic state is 1-A.
 Alpha  occ. eigenvalues --  -10.22447 -10.22436 -10.22435 -10.22431 -10.22377
 Alpha  occ. eigenvalues --  -10.22377 -10.22305 -10.22305 -10.22243 -10.22243
 Alpha  occ. eigenvalues --  -10.21929 -10.21929 -10.21823 -10.21821 -10.21771
 Alpha  occ. eigenvalues --  -10.21770 -10.21680 -10.21678 -10.21553 -10.21518
 Alpha  occ. eigenvalues --  -10.21513 -10.21513 -10.21481 -10.21429 -10.21418
 Alpha  occ. eigenvalues --  -10.21417 -10.21234 -10.21230 -10.21221 -10.21187
 Alpha  occ. eigenvalues --  -10.21177 -10.21161 -10.21161 -10.21154 -10.21152
 Alpha  occ. eigenvalues --  -10.21143 -10.21115 -10.21115 -10.21076 -10.21076
 Alpha  occ. eigenvalues --  -10.21072 -10.20980 -10.20972 -10.20970 -10.20958
 Alpha  occ. eigenvalues --  -10.20957 -10.20954 -10.20930 -10.20929 -10.20918
 Alpha  occ. eigenvalues --  -10.20892 -10.20891 -10.20880 -10.20880 -10.20823
 Alpha  occ. eigenvalues --  -10.20823 -10.20751 -10.20751 -10.20690 -10.20689
 Alpha  occ. eigenvalues --  -10.20667 -10.20667 -10.20663 -10.20630 -10.20405
 Alpha  occ. eigenvalues --  -10.20366  -0.96783  -0.95292  -0.95217  -0.94354
 Alpha  occ. eigenvalues --   -0.92369  -0.91985  -0.91404  -0.91196  -0.90458
 Alpha  occ. eigenvalues --   -0.88442  -0.87974  -0.87371  -0.86828  -0.85976
 Alpha  occ. eigenvalues --   -0.84018  -0.83729  -0.81705  -0.81066  -0.80926
 Alpha  occ. eigenvalues --   -0.80593  -0.80034  -0.79237  -0.78486  -0.78168
 Alpha  occ. eigenvalues --   -0.77096  -0.75052  -0.74821  -0.74069  -0.73865
 Alpha  occ. eigenvalues --   -0.73072  -0.72937  -0.72873  -0.72603  -0.70686
 Alpha  occ. eigenvalues --   -0.69854  -0.67968  -0.66223  -0.66068  -0.65825
 Alpha  occ. eigenvalues --   -0.65521  -0.64460  -0.64224  -0.64216  -0.63844
 Alpha  occ. eigenvalues --   -0.62843  -0.62327  -0.61764  -0.59981  -0.59271
 Alpha  occ. eigenvalues --   -0.58616  -0.57529  -0.57357  -0.55707  -0.55449
 Alpha  occ. eigenvalues --   -0.54821  -0.54270  -0.53919  -0.53618  -0.53213
 Alpha  occ. eigenvalues --   -0.52318  -0.52317  -0.51538  -0.51143  -0.50105
 Alpha  occ. eigenvalues --   -0.49528  -0.49179  -0.48826  -0.48495  -0.48020
 Alpha  occ. eigenvalues --   -0.47609  -0.47227  -0.47145  -0.46894  -0.46300
 Alpha  occ. eigenvalues --   -0.45754  -0.45401  -0.45337  -0.45219  -0.45099
 Alpha  occ. eigenvalues --   -0.45002  -0.44230  -0.44106  -0.43941  -0.43546
 Alpha  occ. eigenvalues --   -0.43359  -0.43258  -0.43156  -0.42856  -0.41939
 Alpha  occ. eigenvalues --   -0.41801  -0.41165  -0.41046  -0.40787  -0.40750
 Alpha  occ. eigenvalues --   -0.40519  -0.39863  -0.39581  -0.39458  -0.39452
 Alpha  occ. eigenvalues --   -0.39107  -0.38704  -0.38534  -0.38218  -0.37503
 Alpha  occ. eigenvalues --   -0.36578  -0.36373  -0.36216  -0.35983  -0.35682
 Alpha  occ. eigenvalues --   -0.35508  -0.35306  -0.35057  -0.34930  -0.34758
 Alpha  occ. eigenvalues --   -0.34539  -0.33788  -0.33739  -0.33150  -0.32684
 Alpha  occ. eigenvalues --   -0.32394  -0.31523  -0.29119  -0.29109  -0.28091
 Alpha  occ. eigenvalues --   -0.27498  -0.27097  -0.26073  -0.25793  -0.25501
 Alpha  occ. eigenvalues --   -0.24002  -0.23344  -0.22970  -0.22631  -0.21370
 Alpha  occ. eigenvalues --   -0.20805
 Alpha virt. eigenvalues --   -0.12222  -0.11185  -0.10229  -0.08380  -0.07241
 Alpha virt. eigenvalues --   -0.06333  -0.06239  -0.05702  -0.04585  -0.03757
 Alpha virt. eigenvalues --   -0.03471  -0.02769  -0.02506  -0.01529  -0.01255

 Mulliken charges:
               1
     1  C    0.018730
     2  C   -0.008003
     3  C   -0.002609
     4  C   -0.007679
     5  C   -0.007399
     6  C   -0.003518
     7  C   -0.122723
     8  C   -0.000507
     9  C   -0.003817
    10  C   -0.171970
    11  C    0.001903
    12  C   -0.002615
    13  C   -0.005162
    14  C   -0.002071
    15  C   -0.002071
    16  C   -0.005101
    17  C   -0.010243
    18  C    0.011270
    19  C   -0.005001
    20  C   -0.000585
    21  C   -0.003772
    22  C    0.032887
    23  C   -0.026573
    24  C    0.015023
    25  C   -0.000585
    26  C   -0.005001
    27  C    0.011270
    28  C   -0.024781
    29  C    0.028999
    30  C   -0.006513
    31  C   -0.006513
    32  C    0.028999
    33  C   -0.171970
    34  C    0.009870
    35  C    0.009870
    36  C   -0.016368
    37  C   -0.122723
    38  C    0.002274
    39  C    0.007921
    40  C   -0.024781
    41  C   -0.019716
    42  C   -0.149548
    43  C   -0.161017
    44  C   -0.016368
    45  C    0.015023
    46  C   -0.026573
    47  C    0.002274
    48  C    0.032887
    49  C    0.007921
    50  C   -0.003772
    51  C   -0.007679
    52  C   -0.002609
    53  C   -0.007399
    54  C   -0.005162
    55  C   -0.002615
    56  C   -0.010243
    57  C   -0.005101
    58  C   -0.012377
    59  C   -0.003047
    60  C    0.001903
    61  C   -0.003817
    62  C   -0.003518
    63  C   -0.000507
    64  C   -0.008003
    65  C    0.018730
    66  C   -0.019716
    67  H    0.163536
    68  H    0.159673
    69  H    0.159673
    70  H    0.163536
    71  H    0.166430
    72  H    0.168837
 Sum of Mulliken charges =  -0.00000

 Dipole moment (field-independent basis, Debye):
    X=              3.6682    Y=              2.8326    Z=              0.0000  Tot=              4.6346
 Quadrupole moment (field-independent basis, Debye-Ang):
   XX=           -356.6395   YY=           -365.1654   ZZ=           -368.5038
   XY=             -3.1732   XZ=              0.0000   YZ=              0.0000

 Normal termination of Gaussian 16 at Wed Jul 20 03:48:09 2022.
