 Gaussian 16, Revision A.03,
 Gaussian 16:  ES64L-G16RevA.03 25-Dec-2016

 -------------------------------------------------
 #P opt b3lyp/6-311G(d, p) empiricaldispersion=GD3
 -------------------------------------------------

 -----
 force
 -----
 Symbolic Z-matrix:
 Charge =  0 Multiplicity = 1

 SCF Done:  E(RB3LYP) =  -2519.03837256     A.U. after   18 cycles
 SCF Done:  E(RB3LYP) =  -2519.04644692     A.U. after   15 cycles
 SCF Done:  E(RB3LYP) =  -2519.04664045     A.U. after    9 cycles
 SCF Done:  E(RB3LYP) =  -2519.04666591     A.U. after    9 cycles
 Optimization completed.
    -- Stationary point found.

                         Standard orientation:
 ---------------------------------------------------------------------
 Center     Atomic      Atomic             Coordinates (Angstroms)
 Number     Number       Type             X           Y           Z
 ---------------------------------------------------------------------
      1          6           0        2.843613    2.600033   -0.851409
      2          6           0        3.328747    1.439413   -1.438816
      3          6           0        2.599380    0.814066   -2.527074
      4          6           0        1.379063    1.345314   -2.949985
      5          6           0        2.755449   -0.598760   -2.432413
      6          6           0        3.609515   -0.884923   -1.253335
      7          6           0       -2.882708   -0.495668   -2.687868
      8          6           0        3.902169    0.384592   -0.626809
      9          6           0        3.377484   -1.999958   -0.488000
     10          6           0       -3.997041   -0.529484   -1.548505
     11          6           0        2.506604   -3.163297   -0.949655
     12          6           0        1.589138   -2.830156   -2.221251
     13          6           0        1.691811   -1.413241   -2.746007
     14          6           0        0.021202   -2.585920    2.431188
     15          6           0        0.099213   -2.944008   -1.991471
     16          6           0       -0.465589   -3.415339    1.419428
     17          6           0       -1.779873   -3.176117    0.928308
     18          6           0       -1.092991    1.740990    2.675644
     19          6           0        0.103133    0.991917    3.161403
     20          6           0        0.254183   -0.388554    3.272450
     21          6           0       -3.562661   -1.643969   -0.623675
     22          6           0       -2.531010   -2.408269   -1.255397
     23          6           0       -1.964201   -1.672783   -2.341822
     24          6           0       -0.617175   -1.873272   -2.639797
     25          6           0        0.394098   -0.879969   -3.083815
     26          6           0        0.232069    0.506021   -3.217535
     27          6           0       -0.982229    1.317677   -2.911372
     28          6           0       -2.248875    0.891736   -2.552451
     29          6           0       -2.980847    1.647748   -1.563311
     30          6           0       -3.826525    0.779191   -0.811337
     31          6           0       -3.851674    0.881350    0.562175
     32          6           0       -3.032870    1.854463    1.209017
     33          6           0       -4.055298   -0.303385    1.478383
     34          6           0       -2.469829    2.891898    0.469492
     35          6           0       -2.443354    2.786396   -0.965635
     36          6           0       -1.197733    3.308730   -1.426216
     37          6           0       -2.992084   -0.094941    2.647848
     38          6           0       -0.503742    2.599952   -2.405574
     39          6           0        0.931747    2.601999   -2.402208
     40          6           0       -2.343535    1.257515    2.329984
     41          6           0        1.641372    3.221728   -1.368945
     42          6           0        0.911956    3.788632   -0.254604
     43          6           0       -0.472917    3.837596   -0.284750
     44          6           0       -1.241053    3.481361    0.894284
     45          6           0       -0.742258   -1.446503    2.928477
     46          6           0       -2.059983   -1.305823    2.528679
     47          6           0       -0.588734    2.930017    1.995127
     48          6           0       -2.577022   -2.196006    1.516754
     49          6           0        0.845601    2.940480    2.050495
     50          6           0       -3.586820   -1.541392    0.746798
     51          6           0        1.274531    1.793978    2.806428
     52          6           0        2.515155    1.224180    2.527341
     53          6           0        2.668169   -0.193466    2.637995
     54          6           0        1.576022   -0.963154    3.022418
     55          6           0        1.410691   -2.277370    2.458615
     56          6           0       -1.757912   -3.295036   -0.503806
     57          6           0       -0.432582   -3.613423   -0.911727
     58          6           0        0.386464   -3.789628    0.309178
     59          6           0        1.714370   -3.460822    0.319272
     60          6           0        2.247898   -2.722561    1.422167
     61          6           0        3.304811   -1.864685    0.940291
     62          6           0        3.542408   -0.641107    1.564427
     63          6           0        3.888801    0.506562    0.768957
     64          6           0        3.292252    1.677137    1.384557
     65          6           0        2.818238    2.718459    0.597239
     66          6           0        1.597887    3.402116    0.962054
     67          1           0       -3.314614   -0.623415   -3.684431
     68          1           0       -5.000626   -0.670075   -1.958310
     69          1           0       -5.075586   -0.384870    1.861949
     70          1           0       -3.468566   -0.071289    3.631611
     71          1           0        3.130058   -4.018407   -1.225766
     72          1           0        1.884635   -3.533510   -3.006823
 ---------------------------------------------------------------------

 The electronic state is 1-A.
 Alpha  occ. eigenvalues --  -10.22545 -10.22512 -10.22512 -10.22447 -10.22378
 Alpha  occ. eigenvalues --  -10.22324 -10.22287 -10.22276 -10.22233 -10.22214
 Alpha  occ. eigenvalues --  -10.22108 -10.21897 -10.21887 -10.21830 -10.21804
 Alpha  occ. eigenvalues --  -10.21789 -10.21754 -10.21707 -10.21617 -10.21558
 Alpha  occ. eigenvalues --  -10.21457 -10.21384 -10.21367 -10.21353 -10.21328
 Alpha  occ. eigenvalues --  -10.21282 -10.21269 -10.21240 -10.21233 -10.21225
 Alpha  occ. eigenvalues --  -10.21204 -10.21191 -10.21184 -10.21182 -10.21160
 Alpha  occ. eigenvalues --  -10.21158 -10.21147 -10.21136 -10.21126 -10.21115
 Alpha  occ. eigenvalues --  -10.21105 -10.21083 -10.21069 -10.21055 -10.21021
 Alpha  occ. eigenvalues --  -10.21014 -10.21000 -10.20981 -10.20963 -10.20939
 Alpha  occ. eigenvalues --  -10.20925 -10.20906 -10.20891 -10.20815 -10.20783
 Alpha  occ. eigenvalues --  -10.20751 -10.20709 -10.20691 -10.20661 -10.20644
 Alpha  occ. eigenvalues --  -10.20615 -10.20600 -10.20528 -10.20411 -10.20356
 Alpha  occ. eigenvalues --  -10.20321  -0.96764  -0.95404  -0.95224  -0.94254
 Alpha  occ. eigenvalues --   -0.92294  -0.92144  -0.91291  -0.91151  -0.90585
 Alpha  occ. eigenvalues --   -0.88348  -0.87949  -0.87429  -0.87065  -0.85797
 Alpha  occ. eigenvalues --   -0.84125  -0.83709  -0.81791  -0.81202  -0.80763
 Alpha  occ. eigenvalues --   -0.80483  -0.80087  -0.79239  -0.78619  -0.78043
 Alpha  occ. eigenvalues --   -0.77196  -0.74950  -0.74847  -0.74057  -0.73936
 Alpha  occ. eigenvalues --   -0.73105  -0.73027  -0.72733  -0.72702  -0.70537
 Alpha  occ. eigenvalues --   -0.70142  -0.67752  -0.66393  -0.65918  -0.65684
 Alpha  occ. eigenvalues --   -0.65595  -0.64644  -0.64342  -0.64038  -0.63850
 Alpha  occ. eigenvalues --   -0.62375  -0.62272  -0.61718  -0.60917  -0.59348
 Alpha  occ. eigenvalues --   -0.58352  -0.57513  -0.56804  -0.56375  -0.55292
 Alpha  occ. eigenvalues --   -0.54802  -0.54146  -0.53947  -0.53566  -0.53295
 Alpha  occ. eigenvalues --   -0.52840  -0.52126  -0.51471  -0.50754  -0.50168
 Alpha  occ. eigenvalues --   -0.50002  -0.48883  -0.48711  -0.48433  -0.47954
 Alpha  occ. eigenvalues --   -0.47748  -0.47448  -0.47150  -0.46922  -0.46438
 Alpha  occ. eigenvalues --   -0.46116  -0.45548  -0.45430  -0.45247  -0.44854
 Alpha  occ. eigenvalues --   -0.44563  -0.44364  -0.44141  -0.43832  -0.43494
 Alpha  occ. eigenvalues --   -0.43417  -0.43184  -0.42760  -0.42471  -0.42277
 Alpha  occ. eigenvalues --   -0.41654  -0.41487  -0.41167  -0.40799  -0.40728
 Alpha  occ. eigenvalues --   -0.40328  -0.39946  -0.39733  -0.39586  -0.39304
 Alpha  occ. eigenvalues --   -0.38982  -0.38896  -0.38551  -0.37868  -0.37457
 Alpha  occ. eigenvalues --   -0.36727  -0.36628  -0.36061  -0.35884  -0.35741
 Alpha  occ. eigenvalues --   -0.35499  -0.35246  -0.35061  -0.34944  -0.34749
 Alpha  occ. eigenvalues --   -0.34593  -0.34269  -0.33810  -0.33500  -0.33117
 Alpha  occ. eigenvalues --   -0.32194  -0.30976  -0.29197  -0.28911  -0.27924
 Alpha  occ. eigenvalues --   -0.27577  -0.26867  -0.26223  -0.25696  -0.24947
 Alpha  occ. eigenvalues --   -0.24308  -0.23703  -0.22715  -0.22639  -0.21942
 Alpha  occ. eigenvalues --   -0.20721
 Alpha virt. eigenvalues --   -0.12363  -0.10960  -0.10064  -0.08314  -0.07487
 Alpha virt. eigenvalues --   -0.06631  -0.05971  -0.05847  -0.04608  -0.03685
 Alpha virt. eigenvalues --   -0.03097  -0.02693  -0.02615  -0.02169  -0.00740

 Mulliken charges:
               1
     1  C   -0.003875
     2  C   -0.003604
     3  C   -0.003969
     4  C   -0.005720
     5  C    0.009632
     6  C    0.000278
     7  C   -0.120479
     8  C   -0.000147
     9  C   -0.017036
    10  C   -0.172227
    11  C   -0.155168
    12  C   -0.121075
    13  C   -0.046341
    14  C   -0.002790
    15  C   -0.039140
    16  C   -0.004981
    17  C   -0.008404
    18  C    0.017020
    19  C   -0.003859
    20  C   -0.001681
    21  C   -0.006004
    22  C    0.029194
    23  C   -0.028918
    24  C    0.039340
    25  C    0.018508
    26  C   -0.004397
    27  C    0.014110
    28  C   -0.027285
    29  C    0.033582
    30  C   -0.003889
    31  C   -0.004947
    32  C    0.033346
    33  C   -0.171971
    34  C   -0.010689
    35  C   -0.010047
    36  C   -0.006033
    37  C   -0.124366
    38  C   -0.001525
    39  C   -0.005532
    40  C   -0.026652
    41  C    0.002424
    42  C   -0.004212
    43  C   -0.011878
    44  C   -0.004847
    45  C    0.015165
    46  C   -0.027583
    47  C   -0.002630
    48  C    0.035467
    49  C   -0.002547
    50  C   -0.005760
    51  C   -0.004040
    52  C   -0.005749
    53  C   -0.004680
    54  C   -0.004718
    55  C   -0.008207
    56  C   -0.010201
    57  C    0.002028
    58  C   -0.004645
    59  C   -0.014972
    60  C    0.021431
    61  C    0.014419
    62  C   -0.009640
    63  C   -0.001083
    64  C   -0.004975
    65  C   -0.003968
    66  C    0.001777
    67  H    0.164069
    68  H    0.159855
    69  H    0.160277
    70  H    0.165493
    71  H    0.170564
    72  H    0.171108
 Sum of Mulliken charges =  -0.00000

 Dipole moment (field-independent basis, Debye):
    X=             -3.0868    Y=             -2.5484    Z=             -1.1936  Tot=              4.1770
 Quadrupole moment (field-independent basis, Debye-Ang):
   XX=           -353.5470   YY=           -373.2737   ZZ=           -364.2287
   XY=             -4.5611   XZ=             -3.9440   YZ=              7.5889

 Normal termination of Gaussian 16 at Wed Jul 20 23:41:35 2022.
