 Gaussian 16, Revision A.03,
 Gaussian 16:  ES64L-G16RevA.03 25-Dec-2016

 -------------------------------------------------
 #P opt b3lyp/6-311G(d, p) empiricaldispersion=GD3
 -------------------------------------------------

 -----
 force
 -----
 Symbolic Z-matrix:
 Charge =  0 Multiplicity = 1

 SCF Done:  E(RB3LYP) =  -2519.03226013     A.U. after   18 cycles
 SCF Done:  E(RB3LYP) =  -2519.04019276     A.U. after   15 cycles
 SCF Done:  E(RB3LYP) =  -2519.04039242     A.U. after    9 cycles
 SCF Done:  E(RB3LYP) =  -2519.04041793     A.U. after    9 cycles
 Optimization completed.
    -- Stationary point found.

                         Standard orientation:
 ---------------------------------------------------------------------
 Center     Atomic      Atomic             Coordinates (Angstroms)
 Number     Number       Type             X           Y           Z
 ---------------------------------------------------------------------
      1          6           0        3.181316   -2.259749    0.408353
      2          6           0        3.567776   -1.175022    1.149056
      3          6           0        3.022311   -0.872637    2.550544
      4          6           0        1.732055   -1.681406    2.968961
      5          6           0        2.781619    0.618643    2.440275
      6          6           0        3.482701    1.155658    1.308142
      7          6           0       -2.839186   -0.240794    2.778602
      8          6           0        3.923933    0.045542    0.487587
      9          6           0        3.086651    2.353035    0.710608
     10          6           0       -3.984722   -0.184260    1.671047
     11          6           0        1.968851    3.067828    1.254706
     12          6           0        1.244445    2.487319    2.308109
     13          6           0        1.622897    1.222020    2.864945
     14          6           0       -0.401554    2.938419   -2.025252
     15          6           0       -0.185355    2.601917    2.357381
     16          6           0       -0.964749    3.551494   -0.904946
     17          6           0       -2.222912    3.072306   -0.430525
     18          6           0       -0.966320   -1.422257   -2.884769
     19          6           0        0.108564   -0.458516   -3.271919
     20          6           0        0.080470    0.933071   -3.180751
     21          6           0       -3.721719    1.097883    0.914287
     22          6           0       -2.770264    1.887371    1.629190
     23          6           0       -2.080371    1.075689    2.596762
     24          6           0       -0.759453    1.377459    2.896746
     25          6           0        0.376175    0.464419    3.198345
     26          6           0        0.396510   -0.898138    3.118340
     27          6           0       -0.699983   -1.787748    2.681770
     28          6           0       -2.031198   -1.489933    2.417329
     29          6           0       -2.694272   -2.183621    1.343012
     30          6           0       -3.676982   -1.337763    0.744077
     31          6           0       -3.738191   -1.243383   -0.628079
     32          6           0       -2.827008   -1.998785   -1.427265
     33          6           0       -4.119869    0.024966   -1.355668
     34          6           0       -2.113027   -3.053495   -0.859442
     35          6           0       -2.043489   -3.145291    0.574008
     36          6           0       -0.725689   -3.559904    0.926535
     37          6           0       -3.079780    0.128199   -2.558683
     38          6           0       -0.079832   -2.906559    1.981620
     39          6           0        1.336868   -2.760704    1.977627
     40          6           0       -2.258104   -1.161431   -2.454109
     41          6           0        2.062149   -3.109239    0.858872
     42          6           0        1.374560   -3.583870   -0.318314
     43          6           0        0.010203   -3.830906   -0.284580
     44          6           0       -0.836464   -3.412697   -1.386504
     45          6           0       -1.028719    1.790270   -2.668624
     46          6           0       -2.305690    1.421180   -2.275201
     47          6           0       -0.296033   -2.621526   -2.400287
     48          6           0       -2.901466    2.083813   -1.141495
     49          6           0        1.125193   -2.434460   -2.473640
     50          6           0       -3.783804    1.193112   -0.457368
     51          6           0        1.380250   -1.142288   -3.061015
     52          6           0        2.549367   -0.465197   -2.726159
     53          6           0        2.521991    0.963473   -2.632837
     54          6           0        1.326082    1.634600   -2.880247
     55          6           0        1.024587    2.826361   -2.129085
     56          6           0       -2.153948    2.970202    1.001937
     57          6           0       -0.852522    3.379433    1.412016
     58          6           0       -0.127218    3.844624    0.240190
     59          6           0        1.245784    3.684860    0.161312
     60          6           0        1.852314    3.235332   -1.075094
     61          6           0        3.020712    2.451191   -0.739457
     62          6           0        3.371161    1.362333   -1.524366
     63          6           0        3.882118    0.149746   -0.909970
     64          6           0        3.418933   -0.974756   -1.678797
     65          6           0        3.101975   -2.166639   -1.032983
     66          6           0        1.961767   -2.937917   -1.472092
     67          1           0       -3.251268   -0.319618    3.788372
     68          1           0       -4.984633   -0.233422    2.109785
     69          1           0       -5.155296    0.029711   -1.706222
     70          1           0       -3.581847    0.186556   -3.528321
     71          1           0        3.792107   -1.075399    3.301859
     72          1           0        1.946562   -2.145101    3.937898
 ---------------------------------------------------------------------

 The electronic state is 1-A.
 Alpha  occ. eigenvalues --  -10.22579 -10.22556 -10.22509 -10.22470 -10.22430
 Alpha  occ. eigenvalues --  -10.22399 -10.22343 -10.22286 -10.22283 -10.22268
 Alpha  occ. eigenvalues --  -10.22115 -10.22105 -10.22102 -10.21945 -10.21919
 Alpha  occ. eigenvalues --  -10.21843 -10.21794 -10.21741 -10.21577 -10.21508
 Alpha  occ. eigenvalues --  -10.21505 -10.21434 -10.21385 -10.21382 -10.21363
 Alpha  occ. eigenvalues --  -10.21340 -10.21337 -10.21311 -10.21258 -10.21247
 Alpha  occ. eigenvalues --  -10.21240 -10.21237 -10.21225 -10.21208 -10.21183
 Alpha  occ. eigenvalues --  -10.21177 -10.21175 -10.21144 -10.21115 -10.21100
 Alpha  occ. eigenvalues --  -10.21094 -10.21087 -10.21061 -10.21060 -10.21042
 Alpha  occ. eigenvalues --  -10.21026 -10.21021 -10.20974 -10.20962 -10.20953
 Alpha  occ. eigenvalues --  -10.20918 -10.20887 -10.20879 -10.20849 -10.20781
 Alpha  occ. eigenvalues --  -10.20747 -10.20716 -10.20670 -10.20618 -10.20598
 Alpha  occ. eigenvalues --  -10.20587 -10.20586 -10.20401 -10.20398 -10.20361
 Alpha  occ. eigenvalues --  -10.20291  -0.96790  -0.95531  -0.95249  -0.94089
 Alpha  occ. eigenvalues --   -0.92329  -0.92284  -0.91408  -0.91111  -0.90391
 Alpha  occ. eigenvalues --   -0.88463  -0.87980  -0.87431  -0.87068  -0.85846
 Alpha  occ. eigenvalues --   -0.84070  -0.83681  -0.81825  -0.81236  -0.80830
 Alpha  occ. eigenvalues --   -0.80534  -0.80063  -0.79290  -0.78666  -0.78126
 Alpha  occ. eigenvalues --   -0.77086  -0.74924  -0.74780  -0.74063  -0.73926
 Alpha  occ. eigenvalues --   -0.73298  -0.73087  -0.72983  -0.72634  -0.70454
 Alpha  occ. eigenvalues --   -0.70062  -0.67671  -0.66415  -0.65919  -0.65690
 Alpha  occ. eigenvalues --   -0.65441  -0.65030  -0.64471  -0.64254  -0.63833
 Alpha  occ. eigenvalues --   -0.62495  -0.62139  -0.61798  -0.60300  -0.59257
 Alpha  occ. eigenvalues --   -0.58402  -0.58260  -0.56681  -0.56335  -0.55256
 Alpha  occ. eigenvalues --   -0.54684  -0.54341  -0.54155  -0.53544  -0.53099
 Alpha  occ. eigenvalues --   -0.52655  -0.52105  -0.51561  -0.50693  -0.50318
 Alpha  occ. eigenvalues --   -0.49360  -0.48977  -0.48755  -0.48665  -0.48509
 Alpha  occ. eigenvalues --   -0.47797  -0.47428  -0.46935  -0.46697  -0.46635
 Alpha  occ. eigenvalues --   -0.46173  -0.45897  -0.45699  -0.45325  -0.44721
 Alpha  occ. eigenvalues --   -0.44433  -0.44353  -0.44298  -0.43899  -0.43782
 Alpha  occ. eigenvalues --   -0.43539  -0.43009  -0.42692  -0.42165  -0.41988
 Alpha  occ. eigenvalues --   -0.41656  -0.41459  -0.41240  -0.40756  -0.40600
 Alpha  occ. eigenvalues --   -0.40462  -0.40115  -0.40046  -0.39570  -0.39048
 Alpha  occ. eigenvalues --   -0.39021  -0.38808  -0.38642  -0.38030  -0.37221
 Alpha  occ. eigenvalues --   -0.36754  -0.36656  -0.36133  -0.35809  -0.35750
 Alpha  occ. eigenvalues --   -0.35485  -0.35405  -0.35201  -0.35098  -0.34667
 Alpha  occ. eigenvalues --   -0.34556  -0.34221  -0.33994  -0.33251  -0.33106
 Alpha  occ. eigenvalues --   -0.32097  -0.30847  -0.29991  -0.28616  -0.27654
 Alpha  occ. eigenvalues --   -0.27548  -0.27123  -0.26466  -0.25886  -0.24383
 Alpha  occ. eigenvalues --   -0.24170  -0.23631  -0.22675  -0.22554  -0.22193
 Alpha  occ. eigenvalues --   -0.20763
 Alpha virt. eigenvalues --   -0.11878  -0.11427  -0.09778  -0.08642  -0.07904
 Alpha virt. eigenvalues --   -0.07390  -0.05447  -0.05148  -0.04917  -0.03364
 Alpha virt. eigenvalues --   -0.03165  -0.02804  -0.02664  -0.01918  -0.01427

 Mulliken charges:
               1
     1  C    0.004602
     2  C   -0.021190
     3  C   -0.149122
     4  C   -0.134482
     5  C   -0.028101
     6  C    0.018879
     7  C   -0.119837
     8  C    0.020783
     9  C   -0.011435
    10  C   -0.170943
    11  C    0.001524
    12  C   -0.001752
    13  C    0.003646
    14  C   -0.002324
    15  C   -0.002929
    16  C   -0.006314
    17  C   -0.010840
    18  C    0.015340
    19  C   -0.003735
    20  C   -0.002279
    21  C   -0.004185
    22  C    0.033211
    23  C   -0.027694
    24  C    0.015623
    25  C    0.013562
    26  C   -0.066844
    27  C    0.053727
    28  C   -0.034933
    29  C    0.037417
    30  C   -0.004668
    31  C   -0.004454
    32  C    0.033525
    33  C   -0.171687
    34  C   -0.011070
    35  C   -0.010773
    36  C   -0.007466
    37  C   -0.123358
    38  C    0.023790
    39  C   -0.026490
    40  C   -0.026056
    41  C    0.008549
    42  C   -0.005776
    43  C   -0.013835
    44  C   -0.008082
    45  C    0.016311
    46  C   -0.027024
    47  C   -0.001310
    48  C    0.034167
    49  C   -0.002684
    50  C   -0.005562
    51  C   -0.004597
    52  C   -0.006959
    53  C   -0.005736
    54  C   -0.004567
    55  C   -0.003022
    56  C   -0.010125
    57  C   -0.006598
    58  C   -0.011794
    59  C   -0.005345
    60  C    0.001969
    61  C   -0.003867
    62  C   -0.002261
    63  C   -0.007393
    64  C   -0.002911
    65  C   -0.003955
    66  C    0.003989
    67  H    0.162050
    68  H    0.159841
    69  H    0.160702
    70  H    0.165503
    71  H    0.168857
    72  H    0.170797
 Sum of Mulliken charges =  -0.00000

 Dipole moment (field-independent basis, Debye):
    X=             -3.0007    Y=             -1.0660    Z=              2.2299  Tot=              3.8876
 Quadrupole moment (field-independent basis, Debye-Ang):
   XX=           -351.2750   YY=           -383.1572   ZZ=           -357.5433
   XY=             -2.6833   XZ=              7.7786   YZ=             -6.0101

 Normal termination of Gaussian 16 at Wed Jul 20 22:35:36 2022.
