 Gaussian 16, Revision A.03,
 Gaussian 16:  ES64L-G16RevA.03 25-Dec-2016

 -------------------------------------------------
 #P opt b3lyp/6-311G(d, p) empiricaldispersion=GD3
 -------------------------------------------------

 -----
 force
 -----
 Symbolic Z-matrix:
 Charge =  0 Multiplicity = 1

 SCF Done:  E(RB3LYP) =  -2519.04250054     A.U. after   18 cycles
 SCF Done:  E(RB3LYP) =  -2519.05046350     A.U. after   16 cycles
 SCF Done:  E(RB3LYP) =  -2519.05067215     A.U. after    9 cycles
 SCF Done:  E(RB3LYP) =  -2519.05069717     A.U. after    9 cycles
 Optimization completed.
    -- Stationary point found.

                         Standard orientation:
 ---------------------------------------------------------------------
 Center     Atomic      Atomic             Coordinates (Angstroms)
 Number     Number       Type             X           Y           Z
 ---------------------------------------------------------------------
      1          6           0        3.097822    2.311481   -0.740916
      2          6           0        3.458128    1.180237   -1.429839
      3          6           0        2.626381    0.715034   -2.501800
      4          6           0        1.465950    1.392944   -2.881090
      5          6           0        2.626381   -0.715034   -2.501800
      6          6           0        3.458128   -1.180237   -1.429839
      7          6           0       -2.976423    0.000000   -2.677475
      8          6           0        4.196620    0.000000   -0.799318
      9          6           0        3.097822   -2.311481   -0.740916
     10          6           0       -4.068573    0.000000   -1.517795
     11          6           0        1.955529   -3.080480   -1.169390
     12          6           0        1.163758   -2.633787   -2.239345
     13          6           0        1.465950   -1.392944   -2.881090
     14          6           0       -0.262184   -2.787825    2.212846
     15          6           0       -0.262183   -2.787824   -2.212846
     16          6           0       -0.860526   -3.487430    1.165373
     17          6           0       -2.147241   -3.070081    0.720395
     18          6           0       -0.887727    1.610802    2.808044
     19          6           0        0.221030    0.696262    3.204268
     20          6           0        0.221030   -0.696262    3.204268
     21          6           0       -3.745313   -1.221901   -0.688765
     22          6           0       -2.817162   -2.046524   -1.391370
     23          6           0       -2.188620   -1.295201   -2.449656
     24          6           0       -0.887726   -1.610802   -2.808044
     25          6           0        0.221031   -0.696262   -3.204269
     26          6           0        0.221031    0.696262   -3.204269
     27          6           0       -0.887726    1.610802   -2.808044
     28          6           0       -2.188620    1.295201   -2.449656
     29          6           0       -2.817162    2.046524   -1.391370
     30          6           0       -3.745313    1.221901   -0.688765
     31          6           0       -3.745313    1.221901    0.688765
     32          6           0       -2.817162    2.046524    1.391370
     33          6           0       -4.068573    0.000000    1.517795
     34          6           0       -2.147241    3.070081    0.720395
     35          6           0       -2.147241    3.070081   -0.720395
     36          6           0       -0.860525    3.487430   -1.165373
     37          6           0       -2.976424    0.000000    2.677474
     38          6           0       -0.262183    2.787824   -2.212846
     39          6           0        1.163758    2.633787   -2.239345
     40          6           0       -2.188621    1.295201    2.449656
     41          6           0        1.955529    3.080480   -1.169390
     42          6           0        1.302032    3.627775    0.000000
     43          6           0       -0.066970    3.839422   -0.000000
     44          6           0       -0.860526    3.487430    1.165373
     45          6           0       -0.887727   -1.610802    2.808044
     46          6           0       -2.188621   -1.295201    2.449656
     47          6           0       -0.262184    2.787825    2.212846
     48          6           0       -2.817162   -2.046524    1.391370
     49          6           0        1.163758    2.633787    2.239345
     50          6           0       -3.745313   -1.221901    0.688765
     51          6           0        1.465949    1.392944    2.881090
     52          6           0        2.626381    0.715034    2.501800
     53          6           0        2.626381   -0.715034    2.501800
     54          6           0        1.465949   -1.392944    2.881090
     55          6           0        1.163758   -2.633787    2.239345
     56          6           0       -2.147241   -3.070081   -0.720395
     57          6           0       -0.860525   -3.487430   -1.165373
     58          6           0       -0.066970   -3.839422   -0.000000
     59          6           0        1.302032   -3.627775    0.000000
     60          6           0        1.955529   -3.080481    1.169390
     61          6           0        3.097822   -2.311482    0.740917
     62          6           0        3.458128   -1.180236    1.429840
     63          6           0        4.196620    0.000000    0.799319
     64          6           0        3.458128    1.180236    1.429840
     65          6           0        3.097822    2.311482    0.740917
     66          6           0        1.955529    3.080481    1.169390
     67          1           0       -3.434046    0.000000   -3.670731
     68          1           0       -5.087975    0.000000   -1.912430
     69          1           0       -5.087976    0.000000    1.912429
     70          1           0       -3.434047    0.000000    3.670730
     71          1           0        5.243986   -0.000000   -1.115661
     72          1           0        5.243987    0.000000    1.115662
 ---------------------------------------------------------------------

 The electronic state is 1-A.
 Alpha  occ. eigenvalues --  -10.22584 -10.22575 -10.22574 -10.22571 -10.22431
 Alpha  occ. eigenvalues --  -10.22431 -10.22428 -10.22427 -10.22330 -10.22330
 Alpha  occ. eigenvalues --  -10.22277 -10.22277 -10.21917 -10.21915 -10.21749
 Alpha  occ. eigenvalues --  -10.21749 -10.21749 -10.21749 -10.21539 -10.21536
 Alpha  occ. eigenvalues --  -10.21536 -10.21535 -10.21242 -10.21239 -10.21192
 Alpha  occ. eigenvalues --  -10.21192 -10.21190 -10.21189 -10.21181 -10.21181
 Alpha  occ. eigenvalues --  -10.21156 -10.21156 -10.21148 -10.21148 -10.21141
 Alpha  occ. eigenvalues --  -10.21141 -10.21136 -10.21136 -10.21021 -10.21021
 Alpha  occ. eigenvalues --  -10.21006 -10.21006 -10.21006 -10.21006 -10.20993
 Alpha  occ. eigenvalues --  -10.20993 -10.20953 -10.20953 -10.20938 -10.20938
 Alpha  occ. eigenvalues --  -10.20785 -10.20785 -10.20785 -10.20785 -10.20723
 Alpha  occ. eigenvalues --  -10.20723 -10.20723 -10.20723 -10.20536 -10.20536
 Alpha  occ. eigenvalues --  -10.20533 -10.20533 -10.20375 -10.20375 -10.20337
 Alpha  occ. eigenvalues --  -10.20337  -0.96720  -0.95457  -0.95043  -0.94387
 Alpha  occ. eigenvalues --   -0.92271  -0.91962  -0.91457  -0.91242  -0.90454
 Alpha  occ. eigenvalues --   -0.88184  -0.87995  -0.87360  -0.87097  -0.85992
 Alpha  occ. eigenvalues --   -0.83911  -0.83739  -0.81667  -0.81160  -0.80825
 Alpha  occ. eigenvalues --   -0.80783  -0.79937  -0.79215  -0.78564  -0.78006
 Alpha  occ. eigenvalues --   -0.77208  -0.75113  -0.74538  -0.74171  -0.74003
 Alpha  occ. eigenvalues --   -0.73190  -0.73164  -0.72596  -0.72586  -0.70379
 Alpha  occ. eigenvalues --   -0.70090  -0.67673  -0.66883  -0.65598  -0.65582
 Alpha  occ. eigenvalues --   -0.65576  -0.64842  -0.64454  -0.64319  -0.63517
 Alpha  occ. eigenvalues --   -0.62236  -0.62023  -0.61787  -0.60299  -0.59772
 Alpha  occ. eigenvalues --   -0.58630  -0.58342  -0.56377  -0.55799  -0.55540
 Alpha  occ. eigenvalues --   -0.54806  -0.54415  -0.53809  -0.53600  -0.52781
 Alpha  occ. eigenvalues --   -0.52740  -0.51996  -0.51147  -0.50961  -0.50442
 Alpha  occ. eigenvalues --   -0.50018  -0.49414  -0.48854  -0.48390  -0.47843
 Alpha  occ. eigenvalues --   -0.47752  -0.47504  -0.46963  -0.46576  -0.46094
 Alpha  occ. eigenvalues --   -0.45955  -0.45918  -0.45753  -0.45386  -0.44697
 Alpha  occ. eigenvalues --   -0.44450  -0.44264  -0.44134  -0.43851  -0.43585
 Alpha  occ. eigenvalues --   -0.43451  -0.43286  -0.42994  -0.42340  -0.41644
 Alpha  occ. eigenvalues --   -0.41487  -0.41350  -0.41105  -0.40945  -0.40733
 Alpha  occ. eigenvalues --   -0.40434  -0.40135  -0.39917  -0.39537  -0.39166
 Alpha  occ. eigenvalues --   -0.39016  -0.38949  -0.38687  -0.37390  -0.37361
 Alpha  occ. eigenvalues --   -0.36779  -0.36547  -0.36113  -0.35903  -0.35773
 Alpha  occ. eigenvalues --   -0.35632  -0.35256  -0.35028  -0.35026  -0.34724
 Alpha  occ. eigenvalues --   -0.34710  -0.34411  -0.33662  -0.33408  -0.33374
 Alpha  occ. eigenvalues --   -0.31910  -0.30578  -0.29770  -0.29060  -0.28198
 Alpha  occ. eigenvalues --   -0.27181  -0.27168  -0.26059  -0.25834  -0.24084
 Alpha  occ. eigenvalues --   -0.23925  -0.23691  -0.23231  -0.22804  -0.22188
 Alpha  occ. eigenvalues --   -0.20586
 Alpha virt. eigenvalues --   -0.12053  -0.10933  -0.09432  -0.08813  -0.08140
 Alpha virt. eigenvalues --   -0.07165  -0.05917  -0.05719  -0.04234  -0.04017
 Alpha virt. eigenvalues --   -0.02746  -0.02676  -0.02213  -0.01758  -0.00747

 Mulliken charges:
               1
     1  C    0.002132
     2  C   -0.019518
     3  C    0.014119
     4  C   -0.010478
     5  C    0.014119
     6  C   -0.019518
     7  C   -0.125013
     8  C   -0.148543
     9  C    0.002132
    10  C   -0.171129
    11  C    0.001228
    12  C   -0.001970
    13  C   -0.010478
    14  C   -0.005667
    15  C   -0.005667
    16  C   -0.006117
    17  C   -0.011223
    18  C    0.016787
    19  C   -0.001769
    20  C   -0.001769
    21  C   -0.004920
    22  C    0.033488
    23  C   -0.024746
    24  C    0.016787
    25  C   -0.001769
    26  C   -0.001769
    27  C    0.016787
    28  C   -0.024746
    29  C    0.033488
    30  C   -0.004920
    31  C   -0.004921
    32  C    0.033488
    33  C   -0.171129
    34  C   -0.011223
    35  C   -0.011223
    36  C   -0.006117
    37  C   -0.125013
    38  C   -0.005667
    39  C   -0.001970
    40  C   -0.024746
    41  C    0.001228
    42  C   -0.003834
    43  C   -0.011993
    44  C   -0.006117
    45  C    0.016787
    46  C   -0.024746
    47  C   -0.005667
    48  C    0.033488
    49  C   -0.001970
    50  C   -0.004921
    51  C   -0.010478
    52  C    0.014119
    53  C    0.014119
    54  C   -0.010478
    55  C   -0.001970
    56  C   -0.011223
    57  C   -0.006117
    58  C   -0.011993
    59  C   -0.003834
    60  C    0.001228
    61  C    0.002132
    62  C   -0.019519
    63  C   -0.148543
    64  C   -0.019519
    65  C    0.002132
    66  C    0.001228
    67  H    0.165702
    68  H    0.160379
    69  H    0.160379
    70  H    0.165702
    71  H    0.171741
    72  H    0.171740
 Sum of Mulliken charges =  -0.00000

 Dipole moment (field-independent basis, Debye):
    X=             -1.6417    Y=             -0.0000    Z=              0.0000  Tot=              1.6417
 Quadrupole moment (field-independent basis, Debye-Ang):
   XX=           -336.2553   YY=           -386.0128   ZZ=           -367.0202
   XY=              0.0000   XZ=              0.0000   YZ=              0.0000

 Normal termination of Gaussian 16 at Wed Jul 20 10:31:57 2022.
