 Gaussian 16, Revision A.03,
 Gaussian 16:  ES64L-G16RevA.03 25-Dec-2016

 -------------------------------------------------
 #P opt b3lyp/6-311G(d, p) empiricaldispersion=GD3
 -------------------------------------------------

 -----
 force
 -----
 Symbolic Z-matrix:
 Charge =  0 Multiplicity = 1

 SCF Done:  E(RB3LYP) =  -2520.26227233     A.U. after   18 cycles
 SCF Done:  E(RB3LYP) =  -2520.27056197     A.U. after   16 cycles
 SCF Done:  E(RB3LYP) =  -2520.27077416     A.U. after    9 cycles
 SCF Done:  E(RB3LYP) =  -2520.27079770     A.U. after   10 cycles
 Optimization completed.
    -- Stationary point found.

                         Standard orientation:
 ---------------------------------------------------------------------
 Center     Atomic      Atomic             Coordinates (Angstroms)
 Number     Number       Type             X           Y           Z
 ---------------------------------------------------------------------
      1          6           0       -3.469981   -2.316041   -0.591761
      2          6           0       -3.842203   -1.045181   -1.441519
      3          6           0       -2.724563   -0.594506   -2.372194
      4          6           0       -1.637852   -1.346081   -2.745894
      5          6           0       -2.610783    0.809050   -2.391841
      6          6           0       -3.377213    1.363257   -1.323583
      7          6           0        2.895305   -0.261938   -2.755461
      8          6           0       -4.240894    0.297264   -0.664676
      9          6           0       -2.930127    2.501764   -0.697670
     10          6           0        4.029194   -0.300556   -1.637498
     11          6           0       -1.755799    3.182232   -1.187573
     12          6           0       -1.031585    2.658337   -2.267485
     13          6           0       -1.427649    1.412765   -2.846153
     14          6           0        0.549238    2.846650    2.125906
     15          6           0        0.400294    2.722945   -2.296290
     16          6           0        1.156820    3.473383    1.038799
     17          6           0        2.396910    2.956615    0.565505
     18          6           0        0.909624   -1.569698    2.832460
     19          6           0       -0.124128   -0.570293    3.231264
     20          6           0       -0.035861    0.820103    3.191258
     21          6           0        3.819166    0.964875   -0.837032
     22          6           0        2.924983    1.830697   -1.534208
     23          6           0        2.211104    1.093452   -2.546468
     24          6           0        0.923763    1.486099   -2.871310
     25          6           0       -0.257909    0.637180   -3.189844
     26          6           0       -0.362467   -0.755373   -3.120729
     27          6           0        0.695870   -1.730505   -2.744415
     28          6           0        2.030309   -1.493119   -2.455278
     29          6           0        2.654920   -2.257480   -1.402284
     30          6           0        3.660342   -1.474831   -0.760396
     31          6           0        3.710288   -1.434213    0.615935
     32          6           0        2.759183   -2.177622    1.375067
     33          6           0        4.139647   -0.210940    1.393952
     34          6           0        2.005176   -3.178635    0.759890
     35          6           0        1.953145   -3.221135   -0.679433
     36          6           0        0.624680   -3.569507   -1.064450
     37          6           0        3.091492   -0.105073    2.588416
     38          6           0        0.021522   -2.853497   -2.101304
     39          6           0       -1.392178   -2.625589   -2.082576
     40          6           0        2.216575   -1.352985    2.427018
     41          6           0       -2.167832   -3.014540   -1.011226
     42          6           0       -1.497942   -3.525691    0.149943
     43          6           0       -0.142578   -3.838878    0.127497
     44          6           0        0.708426   -3.496571    1.256178
     45          6           0        1.115707    1.645845    2.735692
     46          6           0        2.380328    1.232664    2.345588
     47          6           0        0.191888   -2.719778    2.291186
     48          6           0        3.020013    1.909544    1.245408
     49          6           0       -1.217265   -2.460288    2.343640
     50          6           0        3.867570    1.004917    0.538446
     51          6           0       -1.417980   -1.186814    2.957235
     52          6           0       -2.535558   -0.447738    2.579730
     53          6           0       -2.455485    0.975181    2.554908
     54          6           0       -1.243284    1.587372    2.887416
     55          6           0       -0.882341    2.789931    2.203634
     56          6           0        2.348647    2.917258   -0.873641
     57          6           0        1.078895    3.410048   -1.290062
     58          6           0        0.349371    3.845997   -0.110840
     59          6           0       -1.030746    3.725712   -0.059196
     60          6           0       -1.679649    3.257807    1.146934
     61          6           0       -2.885711    2.554959    0.777523
     62          6           0       -3.298416    1.466302    1.503350
     63          6           0       -4.129563    0.315858    0.922115
     64          6           0       -3.417802   -0.883231    1.528669
     65          6           0       -3.163242   -2.050575    0.879346
     66          6           0       -2.062557   -2.869066    1.304939
     67          1           0        3.314248   -0.328150   -3.763472
     68          1           0        5.030223   -0.379613   -2.069608
     69          1           0        5.170290   -0.266356    1.754178
     70          1           0        3.582816   -0.105040    3.565458
     71          1           0       -5.287858    0.507122   -0.890743
     72          1           0       -5.152312    0.374968    1.309398
     73          1           0       -4.705060   -1.325692   -2.049618
     74          1           0       -4.299850   -3.025818   -0.678933
 ---------------------------------------------------------------------

 The electronic state is 1-A.
 Alpha  occ. eigenvalues --  -10.22266 -10.22220 -10.22116 -10.22087 -10.22080
 Alpha  occ. eigenvalues --  -10.22062 -10.22058 -10.22032 -10.21934 -10.21918
 Alpha  occ. eigenvalues --  -10.21913 -10.21865 -10.21721 -10.21606 -10.21583
 Alpha  occ. eigenvalues --  -10.21440 -10.21431 -10.21428 -10.21380 -10.21311
 Alpha  occ. eigenvalues --  -10.21244 -10.21106 -10.21046 -10.21024 -10.20969
 Alpha  occ. eigenvalues --  -10.20934 -10.20886 -10.20885 -10.20857 -10.20849
 Alpha  occ. eigenvalues --  -10.20846 -10.20810 -10.20797 -10.20765 -10.20756
 Alpha  occ. eigenvalues --  -10.20738 -10.20708 -10.20707 -10.20654 -10.20649
 Alpha  occ. eigenvalues --  -10.20626 -10.20583 -10.20574 -10.20545 -10.20501
 Alpha  occ. eigenvalues --  -10.20499 -10.20481 -10.20423 -10.20412 -10.20374
 Alpha  occ. eigenvalues --  -10.20373 -10.20368 -10.20343 -10.20250 -10.20246
 Alpha  occ. eigenvalues --  -10.20215 -10.20182 -10.20177 -10.20171 -10.20126
 Alpha  occ. eigenvalues --  -10.20121 -10.20058 -10.20046 -10.20006 -10.20002
 Alpha  occ. eigenvalues --  -10.19957  -0.96265  -0.95092  -0.94505  -0.93887
 Alpha  occ. eigenvalues --   -0.91805  -0.91465  -0.91051  -0.90724  -0.89982
 Alpha  occ. eigenvalues --   -0.87761  -0.87396  -0.86887  -0.86704  -0.85510
 Alpha  occ. eigenvalues --   -0.83500  -0.83368  -0.81210  -0.80798  -0.80374
 Alpha  occ. eigenvalues --   -0.80245  -0.79507  -0.78818  -0.78236  -0.77541
 Alpha  occ. eigenvalues --   -0.76877  -0.74837  -0.74205  -0.73866  -0.73660
 Alpha  occ. eigenvalues --   -0.72847  -0.72779  -0.72269  -0.72147  -0.70107
 Alpha  occ. eigenvalues --   -0.69671  -0.67263  -0.66543  -0.65727  -0.65370
 Alpha  occ. eigenvalues --   -0.65194  -0.64566  -0.64113  -0.63977  -0.62983
 Alpha  occ. eigenvalues --   -0.61888  -0.61802  -0.61415  -0.60004  -0.59454
 Alpha  occ. eigenvalues --   -0.58287  -0.57808  -0.57153  -0.55599  -0.55298
 Alpha  occ. eigenvalues --   -0.54860  -0.54370  -0.53376  -0.52819  -0.52374
 Alpha  occ. eigenvalues --   -0.52338  -0.51826  -0.51309  -0.50797  -0.50433
 Alpha  occ. eigenvalues --   -0.49698  -0.49039  -0.48920  -0.48576  -0.47770
 Alpha  occ. eigenvalues --   -0.47555  -0.47216  -0.46720  -0.46476  -0.45846
 Alpha  occ. eigenvalues --   -0.45753  -0.45558  -0.45536  -0.44998  -0.44751
 Alpha  occ. eigenvalues --   -0.44468  -0.44184  -0.43883  -0.43655  -0.43326
 Alpha  occ. eigenvalues --   -0.43084  -0.43001  -0.42781  -0.42192  -0.41854
 Alpha  occ. eigenvalues --   -0.41375  -0.41177  -0.40816  -0.40592  -0.40487
 Alpha  occ. eigenvalues --   -0.40311  -0.40084  -0.39605  -0.39349  -0.39230
 Alpha  occ. eigenvalues --   -0.38751  -0.38578  -0.38292  -0.37836  -0.36934
 Alpha  occ. eigenvalues --   -0.36705  -0.36370  -0.36212  -0.35780  -0.35549
 Alpha  occ. eigenvalues --   -0.35349  -0.35210  -0.34820  -0.34651  -0.34572
 Alpha  occ. eigenvalues --   -0.34362  -0.34254  -0.34196  -0.33531  -0.32947
 Alpha  occ. eigenvalues --   -0.32800  -0.32163  -0.31222  -0.29736  -0.28821
 Alpha  occ. eigenvalues --   -0.27729  -0.27103  -0.26716  -0.26010  -0.25317
 Alpha  occ. eigenvalues --   -0.24712  -0.23614  -0.23326  -0.22903  -0.22128
 Alpha  occ. eigenvalues --   -0.21495  -0.20455
 Alpha virt. eigenvalues --   -0.11380  -0.10385  -0.09231  -0.08203  -0.07206
 Alpha virt. eigenvalues --   -0.06481  -0.05350  -0.05072  -0.03738  -0.03279
 Alpha virt. eigenvalues --   -0.02394  -0.02174  -0.01503  -0.01431   0.00738

 Mulliken charges:
               1
     1  C   -0.146880
     2  C   -0.128161
     3  C   -0.036835
     4  C    0.013088
     5  C    0.035819
     6  C   -0.024820
     7  C   -0.123823
     8  C   -0.131660
     9  C    0.002292
    10  C   -0.171167
    11  C   -0.000837
    12  C   -0.002073
    13  C   -0.016259
    14  C   -0.006683
    15  C   -0.006425
    16  C   -0.006349
    17  C   -0.011530
    18  C    0.015507
    19  C   -0.004210
    20  C   -0.003264
    21  C   -0.005150
    22  C    0.032512
    23  C   -0.025430
    24  C    0.010684
    25  C    0.003605
    26  C   -0.011736
    27  C    0.018096
    28  C   -0.025692
    29  C    0.033169
    30  C   -0.004872
    31  C   -0.004834
    32  C    0.032580
    33  C   -0.170797
    34  C   -0.011894
    35  C   -0.015202
    36  C   -0.002082
    37  C   -0.124557
    38  C   -0.007528
    39  C    0.000107
    40  C   -0.024727
    41  C   -0.023430
    42  C    0.016090
    43  C   -0.018028
    44  C   -0.006363
    45  C    0.016466
    46  C   -0.024856
    47  C   -0.004841
    48  C    0.032514
    49  C   -0.007522
    50  C   -0.006201
    51  C   -0.010724
    52  C    0.011096
    53  C    0.017101
    54  C   -0.009221
    55  C   -0.001880
    56  C   -0.011482
    57  C   -0.007466
    58  C   -0.012860
    59  C   -0.003037
    60  C   -0.001031
    61  C    0.000287
    62  C   -0.028757
    63  C   -0.140487
    64  C   -0.012885
    65  C   -0.012705
    66  C    0.024480
    67  H    0.164564
    68  H    0.159209
    69  H    0.159453
    70  H    0.164415
    71  H    0.152703
    72  H    0.166051
    73  H    0.154485
    74  H    0.162884
 Sum of Mulliken charges =  -0.00000

 Dipole moment (field-independent basis, Debye):
    X=             -0.1210    Y=             -1.3279    Z=             -0.5530  Tot=              1.4435
 Quadrupole moment (field-independent basis, Debye-Ang):
   XX=           -330.0602   YY=           -385.8247   ZZ=           -369.8662
   XY=              3.5495   XZ=              2.8565   YZ=              2.4237

 Normal termination of Gaussian 16 at Wed Jul 20 02:43:18 2022.
