 Gaussian 16, Revision A.03,
 Gaussian 16:  ES64L-G16RevA.03 25-Dec-2016

 -------------------------------------------------
 #P opt b3lyp/6-311G(d, p) empiricaldispersion=GD3
 -------------------------------------------------

 -----
 force
 -----
 Symbolic Z-matrix:
 Charge =  0 Multiplicity = 1

 SCF Done:  E(RB3LYP) =  -2520.26279012     A.U. after   20 cycles
 SCF Done:  E(RB3LYP) =  -2520.27088701     A.U. after   15 cycles
 SCF Done:  E(RB3LYP) =  -2520.27109126     A.U. after   10 cycles
 SCF Done:  E(RB3LYP) =  -2520.27112041     A.U. after    9 cycles
 Optimization completed.
    -- Stationary point found.

                         Standard orientation:
 ---------------------------------------------------------------------
 Center     Atomic      Atomic             Coordinates (Angstroms)
 Number     Number       Type             X           Y           Z
 ---------------------------------------------------------------------
      1          6           0       -3.189609   -2.225209   -0.848520
      2          6           0       -3.524285   -1.010424   -1.431507
      3          6           0       -2.729423   -0.482196   -2.523923
      4          6           0       -1.590541   -1.165840   -2.956941
      5          6           0       -2.702158    0.940039   -2.426773
      6          6           0       -3.501769    1.330909   -1.239167
      7          6           0        2.872380    0.124571   -2.699375
      8          6           0       -3.952992    0.108175   -0.613646
      9          6           0       -3.118864    2.402271   -0.471584
     10          6           0        4.020588    0.009009   -1.599144
     11          6           0       -2.102489    3.440687   -0.934484
     12          6           0       -1.249833    2.998503   -2.213819
     13          6           0       -1.544762    1.611114   -2.745302
     14          6           0        0.292276    2.527507    2.435354
     15          6           0        0.243094    2.905736   -1.993185
     16          6           0        0.891588    3.284160    1.422737
     17          6           0        2.162275    2.889661    0.942266
     18          6           0        0.831588   -1.888545    2.680252
     19          6           0       -0.259222   -0.994894    3.168729
     20          6           0       -0.229579    0.391728    3.276835
     21          6           0        4.012082    1.316735   -0.748780
     22          6           0        2.793800    2.041506   -1.265797
     23          6           0        2.117577    1.378474   -2.298256
     24          6           0        0.799153    1.760500   -2.620929
     25          6           0       -0.327433    0.912492   -3.084101
     26          6           0       -0.347364   -0.479887   -3.232375
     27          6           0        0.756364   -1.439034   -2.931921
     28          6           0        2.066661   -1.169717   -2.572211
     29          6           0        2.687395   -1.991532   -1.569501
     30          6           0        3.616096   -1.204961   -0.816247
     31          6           0        3.632742   -1.312893    0.547138
     32          6           0        2.722400   -2.209727    1.190900
     33          6           0        4.060662   -0.237020    1.499901
     34          6           0        2.043182   -3.174125    0.456056
     35          6           0        2.026173   -3.063654   -0.979758
     36          6           0        0.728093   -3.434933   -1.439418
     37          6           0        2.950158   -0.301462    2.641613
     38          6           0        0.123490   -2.647456   -2.420039
     39          6           0       -1.301762   -2.468535   -2.409850
     40          6           0        2.130881   -1.558240    2.328854
     41          6           0       -2.078207   -2.993019   -1.371563
     42          6           0       -1.421125   -3.648485   -0.260146
     43          6           0       -0.053176   -3.870033   -0.294898
     44          6           0        0.756029   -3.616480    0.884046
     45          6           0        0.890706    1.308829    2.912336
     46          6           0        2.182245    0.998158    2.478412
     47          6           0        0.180124   -2.996568    1.992283
     48          6           0        2.821302    1.819874    1.514936
     49          6           0       -1.244987   -2.826765    2.050160
     50          6           0        4.025955    1.187291    0.864657
     51          6           0       -1.525763   -1.639995    2.812163
     52          6           0       -2.682271   -0.914113    2.536110
     53          6           0       -2.650498    0.512628    2.650853
     54          6           0       -1.468045    1.134162    3.036704
     55          6           0       -1.132525    2.413039    2.471676
     56          6           0        2.148683    3.017897   -0.519592
     57          6           0        0.877626    3.492337   -0.906928
     58          6           0        0.090633    3.769043    0.314876
     59          6           0       -1.266331    3.621902    0.328356
     60          6           0       -1.899014    2.962544    1.437262
     61          6           0       -3.061664    2.256324    0.956078
     62          6           0       -3.457087    1.071872    1.579003
     63          6           0       -3.952000   -0.019012    0.781045
     64          6           0       -3.511315   -1.259129    1.392311
     65          6           0       -3.174578   -2.349335    0.600494
     66          6           0       -2.050354   -3.183490    0.959830
     67          1           0        3.286676    0.224634   -3.707529
     68          1           0        4.994612   -0.134631   -2.072380
     69          1           0        4.900934    1.900835   -0.996324
     70          1           0        4.916684    1.730979    1.186869
     71          1           0        5.049545   -0.447743    1.913131
     72          1           0        3.396059   -0.366595    3.638754
     73          1           0       -2.608553    4.374354   -1.196774
     74          1           0       -1.453822    3.740339   -2.993046
 ---------------------------------------------------------------------

 The electronic state is 1-A.
 Alpha  occ. eigenvalues --  -10.22318 -10.22268 -10.22061 -10.22035 -10.21926
 Alpha  occ. eigenvalues --  -10.21899 -10.21898 -10.21735 -10.21710 -10.21572
 Alpha  occ. eigenvalues --  -10.21519 -10.21513 -10.21447 -10.21446 -10.21444
 Alpha  occ. eigenvalues --  -10.21424 -10.21368 -10.21367 -10.21238 -10.21198
 Alpha  occ. eigenvalues --  -10.21170 -10.21144 -10.21142 -10.21120 -10.21107
 Alpha  occ. eigenvalues --  -10.21085 -10.21061 -10.21044 -10.21036 -10.20976
 Alpha  occ. eigenvalues --  -10.20958 -10.20955 -10.20954 -10.20948 -10.20914
 Alpha  occ. eigenvalues --  -10.20887 -10.20879 -10.20873 -10.20857 -10.20841
 Alpha  occ. eigenvalues --  -10.20803 -10.20754 -10.20748 -10.20741 -10.20690
 Alpha  occ. eigenvalues --  -10.20680 -10.20666 -10.20643 -10.20640 -10.20639
 Alpha  occ. eigenvalues --  -10.20610 -10.20568 -10.20536 -10.20504 -10.20478
 Alpha  occ. eigenvalues --  -10.20471 -10.20456 -10.20379 -10.20338 -10.20315
 Alpha  occ. eigenvalues --  -10.20303 -10.20201 -10.20116 -10.20092 -10.20038
 Alpha  occ. eigenvalues --  -10.19945  -0.96444  -0.95071  -0.94586  -0.94009
 Alpha  occ. eigenvalues --   -0.91953  -0.91419  -0.90983  -0.90787  -0.90326
 Alpha  occ. eigenvalues --   -0.87981  -0.87627  -0.87049  -0.86429  -0.85486
 Alpha  occ. eigenvalues --   -0.83601  -0.83405  -0.81431  -0.80706  -0.80503
 Alpha  occ. eigenvalues --   -0.80207  -0.79633  -0.78779  -0.78276  -0.77779
 Alpha  occ. eigenvalues --   -0.76922  -0.74656  -0.74402  -0.73816  -0.73763
 Alpha  occ. eigenvalues --   -0.72857  -0.72650  -0.72482  -0.72431  -0.70292
 Alpha  occ. eigenvalues --   -0.69829  -0.67197  -0.66320  -0.65804  -0.65746
 Alpha  occ. eigenvalues --   -0.65219  -0.64446  -0.64014  -0.63707  -0.63427
 Alpha  occ. eigenvalues --   -0.62096  -0.61921  -0.61217  -0.60944  -0.58964
 Alpha  occ. eigenvalues --   -0.57936  -0.57135  -0.56685  -0.56198  -0.55718
 Alpha  occ. eigenvalues --   -0.54419  -0.54158  -0.53892  -0.53356  -0.52891
 Alpha  occ. eigenvalues --   -0.52432  -0.52326  -0.51912  -0.50690  -0.50094
 Alpha  occ. eigenvalues --   -0.49896  -0.49173  -0.48316  -0.48069  -0.47810
 Alpha  occ. eigenvalues --   -0.47386  -0.47269  -0.46964  -0.46688  -0.46199
 Alpha  occ. eigenvalues --   -0.45768  -0.45648  -0.45144  -0.44975  -0.44756
 Alpha  occ. eigenvalues --   -0.44567  -0.44179  -0.44081  -0.43594  -0.43522
 Alpha  occ. eigenvalues --   -0.43242  -0.42996  -0.42553  -0.42450  -0.41793
 Alpha  occ. eigenvalues --   -0.41442  -0.41198  -0.40879  -0.40773  -0.40407
 Alpha  occ. eigenvalues --   -0.40363  -0.40182  -0.39580  -0.39369  -0.38971
 Alpha  occ. eigenvalues --   -0.38950  -0.38648  -0.38265  -0.38156  -0.37376
 Alpha  occ. eigenvalues --   -0.36862  -0.36128  -0.36092  -0.35556  -0.35434
 Alpha  occ. eigenvalues --   -0.35394  -0.35308  -0.35031  -0.34899  -0.34743
 Alpha  occ. eigenvalues --   -0.34647  -0.34339  -0.34114  -0.33669  -0.33094
 Alpha  occ. eigenvalues --   -0.32483  -0.32201  -0.31441  -0.29492  -0.28292
 Alpha  occ. eigenvalues --   -0.28102  -0.27550  -0.26488  -0.25696  -0.25554
 Alpha  occ. eigenvalues --   -0.25062  -0.24361  -0.23561  -0.22789  -0.22304
 Alpha  occ. eigenvalues --   -0.21820  -0.20233
 Alpha virt. eigenvalues --   -0.12406  -0.10627  -0.09704  -0.08123  -0.06792
 Alpha virt. eigenvalues --   -0.06390  -0.05442  -0.04273  -0.03880  -0.03555
 Alpha virt. eigenvalues --   -0.02840  -0.02586  -0.02294  -0.01100   0.00615

 Mulliken charges:
               1
     1  C   -0.004650
     2  C   -0.003562
     3  C   -0.003475
     4  C   -0.007885
     5  C    0.007905
     6  C    0.000784
     7  C   -0.131801
     8  C   -0.000731
     9  C   -0.018254
    10  C   -0.144819
    11  C   -0.153619
    12  C   -0.124641
    13  C   -0.041992
    14  C    0.002355
    15  C   -0.036463
    16  C   -0.001211
    17  C    0.001313
    18  C    0.018165
    19  C   -0.003927
    20  C   -0.001892
    21  C   -0.132232
    22  C   -0.011177
    23  C   -0.013048
    24  C    0.042315
    25  C    0.016704
    26  C   -0.005396
    27  C    0.013515
    28  C   -0.032512
    29  C    0.022103
    30  C    0.006038
    31  C    0.004413
    32  C    0.021781
    33  C   -0.145939
    34  C   -0.009282
    35  C   -0.008341
    36  C   -0.007817
    37  C   -0.133508
    38  C   -0.001234
    39  C   -0.004862
    40  C   -0.032860
    41  C    0.001165
    42  C   -0.004334
    43  C   -0.012392
    44  C   -0.006035
    45  C    0.017503
    46  C   -0.008926
    47  C   -0.002284
    48  C   -0.003348
    49  C   -0.002433
    50  C   -0.135406
    51  C   -0.005054
    52  C   -0.005254
    53  C   -0.005455
    54  C   -0.003516
    55  C   -0.011017
    56  C    0.002116
    57  C    0.006532
    58  C   -0.008886
    59  C   -0.015583
    60  C    0.022278
    61  C    0.014405
    62  C   -0.009147
    63  C   -0.001360
    64  C   -0.004977
    65  C   -0.004305
    66  C    0.000634
    67  H    0.158203
    68  H    0.145183
    69  H    0.146273
    70  H    0.149288
    71  H    0.146116
    72  H    0.160383
    73  H    0.170042
    74  H    0.169332
 Sum of Mulliken charges =  -0.00000

 Dipole moment (field-independent basis, Debye):
    X=              4.6035    Y=              2.8652    Z=             -0.9346  Tot=              5.5022
 Quadrupole moment (field-independent basis, Debye-Ang):
   XX=           -349.0274   YY=           -372.8646   ZZ=           -367.3588
   XY=             -2.6251   XZ=              3.3016   YZ=             -7.5863

 Normal termination of Gaussian 16 at Wed Jul 20 12:08:57 2022.
