 Gaussian 16, Revision A.03,
 Gaussian 16:  ES64L-G16RevA.03 25-Dec-2016

 -------------------------------------------------
 #P opt b3lyp/6-311G(d, p) empiricaldispersion=GD3
 -------------------------------------------------

 -----
 force
 -----
 Symbolic Z-matrix:
 Charge =  0 Multiplicity = 1

 SCF Done:  E(RB3LYP) =  -2520.25937960     A.U. after   18 cycles
 SCF Done:  E(RB3LYP) =  -2520.26757037     A.U. after   16 cycles
 SCF Done:  E(RB3LYP) =  -2520.26778763     A.U. after    9 cycles
 SCF Done:  E(RB3LYP) =  -2520.26781684     A.U. after    9 cycles
 Optimization completed.
    -- Stationary point found.

                         Standard orientation:
 ---------------------------------------------------------------------
 Center     Atomic      Atomic             Coordinates (Angstroms)
 Number     Number       Type             X           Y           Z
 ---------------------------------------------------------------------
      1          6           0       -3.440979    1.805199    0.727474
      2          6           0       -3.649911    0.614929    1.419018
      3          6           0       -2.787567    0.287239    2.529111
      4          6           0       -1.733897    1.137129    2.863742
      5          6           0       -2.573432   -1.128556    2.536462
      6          6           0       -3.301631   -1.705300    1.418624
      7          6           0        2.883108    0.402195    2.680648
      8          6           0       -3.929819   -0.616240    0.698003
      9          6           0       -2.762017   -2.786166    0.726644
     10          6           0        4.002781    0.573557    1.556056
     11          6           0       -1.521072   -3.376870    1.172138
     12          6           0       -0.822094   -2.801806    2.236580
     13          6           0       -1.318507   -1.619065    2.886986
     14          6           0        0.615290   -2.723239   -2.212039
     15          6           0        0.615290   -2.723239    2.212039
     16          6           0        1.327194   -3.318716   -1.165010
     17          6           0        2.539422   -2.726559   -0.736503
     18          6           0        0.568880    1.694824   -2.783549
     19          6           0       -0.397299    0.635164   -3.180916
     20          6           0       -0.188591   -0.741082   -3.194187
     21          6           0        4.153703   -0.787984    0.810256
     22          6           0        3.043021   -1.623113    1.396456
     23          6           0        2.291546   -0.968012    2.404227
     24          6           0        1.044082   -1.475759    2.784144
     25          6           0       -0.188591   -0.741082    3.194187
     26          6           0       -0.397299    0.635164    3.180916
     27          6           0        0.568880    1.694824    2.783549
     28          6           0        1.911205    1.562736    2.447161
     29          6           0        2.414497    2.366063    1.383715
     30          6           0        3.448214    1.659696    0.681742
     31          6           0        3.448214    1.659696   -0.681742
     32          6           0        2.414497    2.366063   -1.383715
     33          6           0        4.002781    0.573557   -1.556056
     34          6           0        1.605419    3.286886   -0.719570
     35          6           0        1.605419    3.286886    0.719570
     36          6           0        0.292097    3.552175    1.168564
     37          6           0        2.883108    0.402195   -2.680648
     38          6           0       -0.204092    2.766707    2.178741
     39          6           0       -1.619993    2.407002    2.205099
     40          6           0        1.911205    1.562736   -2.447161
     41          6           0       -2.461859    2.751386    1.171684
     42          6           0       -2.050043    3.650918    0.000000
     43          6           0       -0.547672    4.096515    0.000000
     44          6           0        0.292097    3.552175   -1.168564
     45          6           0        1.044082   -1.475759   -2.784144
     46          6           0        2.291546   -0.968012   -2.404227
     47          6           0       -0.204092    2.766707   -2.178741
     48          6           0        3.043021   -1.623113   -1.396456
     49          6           0       -1.619993    2.407002   -2.205099
     50          6           0        4.153703   -0.787984   -0.810256
     51          6           0       -1.733897    1.137129   -2.863742
     52          6           0       -2.787567    0.287239   -2.529111
     53          6           0       -2.573432   -1.128556   -2.536462
     54          6           0       -1.318507   -1.619065   -2.886986
     55          6           0       -0.822094   -2.801806   -2.236580
     56          6           0        2.539422   -2.726559    0.736503
     57          6           0        1.327194   -3.318716    1.165010
     58          6           0        0.597919   -3.792340    0.000000
     59          6           0       -0.782244   -3.815474    0.000000
     60          6           0       -1.521072   -3.376870   -1.172138
     61          6           0       -2.762017   -2.786166   -0.726644
     62          6           0       -3.301631   -1.705300   -1.418624
     63          6           0       -3.929819   -0.616240   -0.698003
     64          6           0       -3.649911    0.614929   -1.419018
     65          6           0       -3.440979    1.805199   -0.727474
     66          6           0       -2.461859    2.751386   -1.171684
     67          1           0        3.311968    0.445303    3.686278
     68          1           0        4.953024    0.872149    2.004081
     69          1           0        5.108574   -1.235399    1.093946
     70          1           0        5.108574   -1.235399   -1.093946
     71          1           0        4.953024    0.872149   -2.004081
     72          1           0        3.311968    0.445303   -3.686278
     73          1           0       -0.519645    5.190351    0.000000
     74          1           0       -2.667635    4.554774    0.000000
 ---------------------------------------------------------------------

 The electronic state is 1-A.
 Alpha  occ. eigenvalues --  -10.22202 -10.22173 -10.22115 -10.22115 -10.21970
 Alpha  occ. eigenvalues --  -10.21970 -10.21716 -10.21716 -10.21478 -10.21466
 Alpha  occ. eigenvalues --  -10.21457 -10.21456 -10.21422 -10.21420 -10.21413
 Alpha  occ. eigenvalues --  -10.21413 -10.21360 -10.21360 -10.21310 -10.21277
 Alpha  occ. eigenvalues --  -10.21264 -10.21220 -10.21219 -10.21216 -10.21216
 Alpha  occ. eigenvalues --  -10.21213 -10.21095 -10.21093 -10.21057 -10.21016
 Alpha  occ. eigenvalues --  -10.21001 -10.20961 -10.20943 -10.20916 -10.20869
 Alpha  occ. eigenvalues --  -10.20869 -10.20828 -10.20827 -10.20759 -10.20758
 Alpha  occ. eigenvalues --  -10.20732 -10.20732 -10.20690 -10.20690 -10.20672
 Alpha  occ. eigenvalues --  -10.20672 -10.20626 -10.20623 -10.20622 -10.20622
 Alpha  occ. eigenvalues --  -10.20595 -10.20593 -10.20527 -10.20526 -10.20486
 Alpha  occ. eigenvalues --  -10.20486 -10.20297 -10.20282 -10.20281 -10.20256
 Alpha  occ. eigenvalues --  -10.20255 -10.20245 -10.20233 -10.20206 -10.20199
 Alpha  occ. eigenvalues --  -10.20170  -0.96466  -0.94953  -0.94580  -0.94120
 Alpha  occ. eigenvalues --   -0.91931  -0.91230  -0.91176  -0.90798  -0.90204
 Alpha  occ. eigenvalues --   -0.88053  -0.87615  -0.86980  -0.86198  -0.85677
 Alpha  occ. eigenvalues --   -0.83469  -0.83453  -0.81335  -0.80669  -0.80571
 Alpha  occ. eigenvalues --   -0.80297  -0.79551  -0.78799  -0.78149  -0.77913
 Alpha  occ. eigenvalues --   -0.76838  -0.74634  -0.74496  -0.73895  -0.73609
 Alpha  occ. eigenvalues --   -0.72802  -0.72691  -0.72599  -0.72259  -0.70420
 Alpha  occ. eigenvalues --   -0.69573  -0.67393  -0.66123  -0.65985  -0.65508
 Alpha  occ. eigenvalues --   -0.65488  -0.64197  -0.63951  -0.63829  -0.63511
 Alpha  occ. eigenvalues --   -0.62544  -0.62001  -0.61210  -0.60088  -0.58888
 Alpha  occ. eigenvalues --   -0.58133  -0.57182  -0.57005  -0.56433  -0.55096
 Alpha  occ. eigenvalues --   -0.54626  -0.54100  -0.54048  -0.52914  -0.52595
 Alpha  occ. eigenvalues --   -0.52496  -0.51980  -0.51977  -0.51382  -0.50104
 Alpha  occ. eigenvalues --   -0.50008  -0.49070  -0.48392  -0.48168  -0.47652
 Alpha  occ. eigenvalues --   -0.47355  -0.47022  -0.46940  -0.46591  -0.46097
 Alpha  occ. eigenvalues --   -0.46023  -0.45230  -0.45197  -0.44970  -0.44841
 Alpha  occ. eigenvalues --   -0.44829  -0.44084  -0.43852  -0.43526  -0.43436
 Alpha  occ. eigenvalues --   -0.43204  -0.42935  -0.42656  -0.42585  -0.42138
 Alpha  occ. eigenvalues --   -0.41752  -0.41269  -0.40942  -0.40878  -0.40568
 Alpha  occ. eigenvalues --   -0.40455  -0.39999  -0.39363  -0.39236  -0.38912
 Alpha  occ. eigenvalues --   -0.38790  -0.38379  -0.38045  -0.38011  -0.37755
 Alpha  occ. eigenvalues --   -0.37063  -0.36615  -0.35702  -0.35673  -0.35304
 Alpha  occ. eigenvalues --   -0.35262  -0.35168  -0.34948  -0.34854  -0.34822
 Alpha  occ. eigenvalues --   -0.34570  -0.34384  -0.34317  -0.33232  -0.32913
 Alpha  occ. eigenvalues --   -0.32253  -0.31827  -0.31095  -0.30733  -0.28395
 Alpha  occ. eigenvalues --   -0.27765  -0.27649  -0.26726  -0.25993  -0.25700
 Alpha  occ. eigenvalues --   -0.24986  -0.24332  -0.23415  -0.22925  -0.22179
 Alpha  occ. eigenvalues --   -0.21112  -0.20358
 Alpha virt. eigenvalues --   -0.12509  -0.10436  -0.10104  -0.07979  -0.07032
 Alpha virt. eigenvalues --   -0.06050  -0.05291  -0.04847  -0.03781  -0.03366
 Alpha virt. eigenvalues --   -0.03088  -0.02692  -0.01946  -0.01127   0.00862

 Mulliken charges:
               1
     1  C    0.018344
     2  C   -0.008030
     3  C   -0.002088
     4  C   -0.008590
     5  C   -0.008506
     6  C   -0.003500
     7  C   -0.132468
     8  C   -0.001096
     9  C   -0.004805
    10  C   -0.146662
    11  C    0.002820
    12  C   -0.006276
    13  C   -0.003831
    14  C    0.000160
    15  C    0.000160
    16  C   -0.002505
    17  C    0.002365
    18  C    0.012867
    19  C   -0.005107
    20  C   -0.001106
    21  C   -0.134319
    22  C   -0.004714
    23  C   -0.009483
    24  C    0.017383
    25  C   -0.001106
    26  C   -0.005107
    27  C    0.012867
    28  C   -0.031164
    29  C    0.015761
    30  C    0.004464
    31  C    0.004464
    32  C    0.015761
    33  C   -0.146662
    34  C    0.012070
    35  C    0.012070
    36  C   -0.017454
    37  C   -0.132468
    38  C    0.002007
    39  C    0.008021
    40  C   -0.031164
    41  C   -0.020643
    42  C   -0.149210
    43  C   -0.161911
    44  C   -0.017454
    45  C    0.017383
    46  C   -0.009483
    47  C    0.002007
    48  C   -0.004714
    49  C    0.008021
    50  C   -0.134319
    51  C   -0.008590
    52  C   -0.002088
    53  C   -0.008506
    54  C   -0.003831
    55  C   -0.006276
    56  C    0.002365
    57  C   -0.002505
    58  C   -0.012238
    59  C   -0.003969
    60  C    0.002820
    61  C   -0.004805
    62  C   -0.003500
    63  C   -0.001096
    64  C   -0.008030
    65  C    0.018344
    66  C   -0.020643
    67  H    0.158483
    68  H    0.145121
    69  H    0.149225
    70  H    0.149225
    71  H    0.145121
    72  H    0.158483
    73  H    0.165612
    74  H    0.168227
 Sum of Mulliken charges =  -0.00000

 Dipole moment (field-independent basis, Debye):
    X=              4.7000    Y=              2.5953    Z=              0.0000  Tot=              5.3690
 Quadrupole moment (field-independent basis, Debye-Ang):
   XX=           -349.1622   YY=           -367.4604   ZZ=           -371.7058
   XY=             -5.9850   XZ=              0.0000   YZ=              0.0000

 Normal termination of Gaussian 16 at Wed Jul 20 05:22:08 2022.
