 Gaussian 16, Revision A.03,
 Gaussian 16:  ES64L-G16RevA.03 25-Dec-2016

 -------------------------------------------------
 #P opt b3lyp/6-311G(d, p) empiricaldispersion=GD3
 -------------------------------------------------

 -----
 force
 -----
 Symbolic Z-matrix:
 Charge =  0 Multiplicity = 1

 SCF Done:  E(RB3LYP) =  -2520.25996454     A.U. after   19 cycles
 SCF Done:  E(RB3LYP) =  -2520.26813175     A.U. after   15 cycles
 SCF Done:  E(RB3LYP) =  -2520.26834043     A.U. after   10 cycles
 SCF Done:  E(RB3LYP) =  -2520.26836968     A.U. after    9 cycles
 Optimization completed.
    -- Stationary point found.

                         Standard orientation:
 ---------------------------------------------------------------------
 Center     Atomic      Atomic             Coordinates (Angstroms)
 Number     Number       Type             X           Y           Z
 ---------------------------------------------------------------------
      1          6           0        2.658762    2.795963   -0.871173
      2          6           0        3.236174    1.675811   -1.458626
      3          6           0        2.557489    0.993695   -2.544422
      4          6           0        1.300255    1.427916   -2.969174
      5          6           0        2.822215   -0.403783   -2.445008
      6          6           0        3.697968   -0.619124   -1.266484
      7          6           0       -2.808379   -0.721755   -2.676277
      8          6           0        3.892609    0.673262   -0.645115
      9          6           0        3.553588   -1.744520   -0.497105
     10          6           0       -3.944223   -0.851953   -1.564855
     11          6           0        2.770816   -2.972134   -0.950237
     12          6           0        1.829719   -2.717247   -2.222791
     13          6           0        1.825639   -1.299300   -2.755869
     14          6           0        0.264802   -2.572023    2.445609
     15          6           0        0.351921   -2.938778   -1.988310
     16          6           0       -0.165575   -3.433970    1.434767
     17          6           0       -1.493059   -3.281823    0.945867
     18          6           0       -1.167025    1.644166    2.666414
     19          6           0        0.081716    0.996371    3.165369
     20          6           0        0.339810   -0.365345    3.286192
     21          6           0       -3.364682   -1.845732   -0.602481
     22          6           0       -2.297849   -2.569267   -1.232967
     23          6           0       -1.800304   -1.823995   -2.338331
     24          6           0       -0.442979   -1.932552   -2.644153
     25          6           0        0.489648   -0.867390   -3.093253
     26          6           0        0.219955    0.500536   -3.225017
     27          6           0       -1.048597    1.215034   -2.895914
     28          6           0       -2.281572    0.690042   -2.499386
     29          6           0       -3.079755    1.389962   -1.559442
     30          6           0       -4.166261    0.555068   -0.929385
     31          6           0       -4.198958    0.678477    0.686146
     32          6           0       -3.134424    1.600237    1.225856
     33          6           0       -4.008683   -0.615157    1.535383
     34          6           0       -2.659356    2.666793    0.491424
     35          6           0       -2.632710    2.559792   -0.977964
     36          6           0       -1.433093    3.162900   -1.428470
     37          6           0       -2.925846   -0.312362    2.666794
     38          6           0       -0.679484    2.520677   -2.417828
     39          6           0        0.754101    2.644127   -2.420334
     40          6           0       -2.381217    1.056664    2.298658
     41          6           0        1.409612    3.313885   -1.387191
     42          6           0        0.634841    3.817678   -0.267114
     43          6           0       -0.744933    3.748218   -0.290239
     44          6           0       -1.478218    3.337691    0.894599
     45          6           0       -0.577236   -1.495780    2.951349
     46          6           0       -1.903203   -1.446860    2.552885
     47          6           0       -0.769954    2.856621    2.000341
     48          6           0       -2.346739   -2.351198    1.527777
     49          6           0        0.662447    2.990244    2.046987
     50          6           0       -3.388916   -1.739294    0.758241
     51          6           0        1.187189    1.887862    2.805981
     52          6           0        2.465194    1.413791    2.517789
     53          6           0        2.727983    0.011539    2.631549
     54          6           0        1.701125   -0.838924    3.026421
     55          6           0        1.629350   -2.160741    2.464009
     56          6           0       -1.467749   -3.403032   -0.486608
     57          6           0       -0.126965   -3.635119   -0.899038
     58          6           0        0.706518   -3.747674    0.319898
     59          6           0        2.006758   -3.322238    0.323022
     60          6           0        2.490594   -2.543791    1.421960
     61          6           0        3.477071   -1.610471    0.932871
     62          6           0        3.624257   -0.370999    1.551803
     63          6           0        3.875593    0.798811    0.750014
     64          6           0        3.194495    1.920270    1.366467
     65          6           0        2.630774    2.916867    0.577187
     66          6           0        1.362911    3.499786    0.949614
     67          1           0       -3.212643   -0.859343   -3.683967
     68          1           0       -4.872180   -1.223635   -2.005068
     69          1           0       -4.955948   -0.922019    1.984310
     70          1           0       -3.377966   -0.295449    3.663039
     71          1           0        3.456545   -3.779690   -1.222105
     72          1           0        2.176301   -3.402108   -3.003667
     73          1           0       -5.176495    1.106456    0.918001
     74          1           0       -5.133321    0.937249   -1.262635
 ---------------------------------------------------------------------

 The electronic state is 1-A.
 Alpha  occ. eigenvalues --  -10.22287 -10.22141 -10.22087 -10.22017 -10.21983
 Alpha  occ. eigenvalues --  -10.21871 -10.21830 -10.21790 -10.21610 -10.21506
 Alpha  occ. eigenvalues --  -10.21492 -10.21485 -10.21479 -10.21465 -10.21455
 Alpha  occ. eigenvalues --  -10.21352 -10.21332 -10.21324 -10.21321 -10.21272
 Alpha  occ. eigenvalues --  -10.21225 -10.21187 -10.21174 -10.21172 -10.21166
 Alpha  occ. eigenvalues --  -10.21154 -10.21092 -10.21057 -10.21047 -10.21008
 Alpha  occ. eigenvalues --  -10.21000 -10.20981 -10.20969 -10.20941 -10.20931
 Alpha  occ. eigenvalues --  -10.20906 -10.20906 -10.20873 -10.20851 -10.20845
 Alpha  occ. eigenvalues --  -10.20784 -10.20783 -10.20732 -10.20711 -10.20701
 Alpha  occ. eigenvalues --  -10.20649 -10.20616 -10.20611 -10.20573 -10.20548
 Alpha  occ. eigenvalues --  -10.20521 -10.20503 -10.20494 -10.20490 -10.20423
 Alpha  occ. eigenvalues --  -10.20399 -10.20371 -10.20343 -10.20314 -10.20296
 Alpha  occ. eigenvalues --  -10.20288 -10.20231 -10.20230 -10.20217 -10.20152
 Alpha  occ. eigenvalues --  -10.19956  -0.96428  -0.95125  -0.94543  -0.94002
 Alpha  occ. eigenvalues --   -0.91839  -0.91463  -0.91034  -0.90756  -0.90316
 Alpha  occ. eigenvalues --   -0.87964  -0.87595  -0.87035  -0.86427  -0.85488
 Alpha  occ. eigenvalues --   -0.83628  -0.83394  -0.81403  -0.80709  -0.80493
 Alpha  occ. eigenvalues --   -0.80196  -0.79606  -0.78800  -0.78279  -0.77775
 Alpha  occ. eigenvalues --   -0.76935  -0.74661  -0.74400  -0.73902  -0.73665
 Alpha  occ. eigenvalues --   -0.72972  -0.72663  -0.72435  -0.72329  -0.70281
 Alpha  occ. eigenvalues --   -0.69845  -0.67229  -0.66463  -0.65755  -0.65566
 Alpha  occ. eigenvalues --   -0.65184  -0.64353  -0.64082  -0.63780  -0.63362
 Alpha  occ. eigenvalues --   -0.62023  -0.61986  -0.61225  -0.61028  -0.58967
 Alpha  occ. eigenvalues --   -0.57937  -0.57135  -0.56852  -0.56156  -0.55321
 Alpha  occ. eigenvalues --   -0.54510  -0.54223  -0.53869  -0.53638  -0.52823
 Alpha  occ. eigenvalues --   -0.52506  -0.52038  -0.51996  -0.50604  -0.50185
 Alpha  occ. eigenvalues --   -0.49734  -0.49150  -0.48357  -0.47966  -0.47828
 Alpha  occ. eigenvalues --   -0.47446  -0.47156  -0.46938  -0.46827  -0.46393
 Alpha  occ. eigenvalues --   -0.46104  -0.45406  -0.45185  -0.44797  -0.44705
 Alpha  occ. eigenvalues --   -0.44268  -0.44104  -0.43984  -0.43762  -0.43385
 Alpha  occ. eigenvalues --   -0.43255  -0.43067  -0.42792  -0.42429  -0.41945
 Alpha  occ. eigenvalues --   -0.41550  -0.41135  -0.40955  -0.40634  -0.40533
 Alpha  occ. eigenvalues --   -0.40423  -0.40142  -0.39516  -0.39351  -0.39045
 Alpha  occ. eigenvalues --   -0.38594  -0.38576  -0.38329  -0.37961  -0.37551
 Alpha  occ. eigenvalues --   -0.36818  -0.36256  -0.35893  -0.35670  -0.35545
 Alpha  occ. eigenvalues --   -0.35444  -0.35226  -0.35075  -0.34840  -0.34778
 Alpha  occ. eigenvalues --   -0.34668  -0.34237  -0.33982  -0.33854  -0.33207
 Alpha  occ. eigenvalues --   -0.32416  -0.32042  -0.31410  -0.29335  -0.28596
 Alpha  occ. eigenvalues --   -0.28213  -0.27386  -0.26490  -0.25884  -0.25504
 Alpha  occ. eigenvalues --   -0.25111  -0.24157  -0.23732  -0.22686  -0.22263
 Alpha  occ. eigenvalues --   -0.21700  -0.20226
 Alpha virt. eigenvalues --   -0.12567  -0.10667  -0.09407  -0.08074  -0.07058
 Alpha virt. eigenvalues --   -0.06368  -0.05436  -0.04785  -0.03859  -0.03185
 Alpha virt. eigenvalues --   -0.02909  -0.02577  -0.02177  -0.01082   0.00756

 Mulliken charges:
               1
     1  C   -0.005353
     2  C   -0.003292
     3  C   -0.005104
     4  C   -0.005199
     5  C    0.010120
     6  C    0.000196
     7  C   -0.129736
     8  C   -0.000853
     9  C   -0.017622
    10  C   -0.146816
    11  C   -0.154690
    12  C   -0.121746
    13  C   -0.046494
    14  C   -0.001948
    15  C   -0.038964
    16  C   -0.006243
    17  C   -0.006318
    18  C    0.019045
    19  C   -0.004387
    20  C   -0.001636
    21  C    0.003896
    22  C    0.017146
    23  C   -0.035480
    24  C    0.040098
    25  C    0.018552
    26  C   -0.005214
    27  C    0.016631
    28  C   -0.010380
    29  C   -0.004518
    30  C   -0.134160
    31  C   -0.134276
    32  C   -0.004579
    33  C   -0.146332
    34  C    0.002529
    35  C    0.001023
    36  C   -0.003247
    37  C   -0.134536
    38  C   -0.000199
    39  C   -0.009179
    40  C   -0.009089
    41  C    0.004489
    42  C   -0.005642
    43  C   -0.011526
    44  C   -0.002362
    45  C    0.015803
    46  C   -0.033629
    47  C   -0.000274
    48  C    0.022776
    49  C   -0.006019
    50  C    0.004892
    51  C   -0.002849
    52  C   -0.006940
    53  C   -0.004231
    54  C   -0.005925
    55  C   -0.007501
    56  C   -0.008344
    57  C    0.001474
    58  C   -0.005582
    59  C   -0.015690
    60  C    0.020456
    61  C    0.014253
    62  C   -0.009562
    63  C   -0.001473
    64  C   -0.004903
    65  C   -0.004902
    66  C    0.002634
    67  H    0.158969
    68  H    0.145529
    69  H    0.145579
    70  H    0.160387
    71  H    0.170030
    72  H    0.169955
    73  H    0.149153
    74  H    0.149328
 Sum of Mulliken charges =  -0.00000

 Dipole moment (field-independent basis, Debye):
    X=             -4.2356    Y=             -2.2949    Z=             -1.1846  Tot=              4.9609
 Quadrupole moment (field-independent basis, Debye-Ang):
   XX=           -345.6844   YY=           -375.6998   ZZ=           -367.5426
   XY=             -6.3058   XZ=             -4.0986   YZ=              7.0586

 Normal termination of Gaussian 16 at Wed Jul 20 16:15:43 2022.
