 Gaussian 16, Revision A.03,
 Gaussian 16:  ES64L-G16RevA.03 25-Dec-2016

 -------------------------------------------------
 #P opt b3lyp/6-311G(d, p) empiricaldispersion=GD3
 -------------------------------------------------

 -----
 force
 -----
 Symbolic Z-matrix:
 Charge =  0 Multiplicity = 1

 SCF Done:  E(RB3LYP) =  -2520.26001810     A.U. after   18 cycles
 SCF Done:  E(RB3LYP) =  -2520.26831047     A.U. after   16 cycles
 SCF Done:  E(RB3LYP) =  -2520.26851715     A.U. after    9 cycles
 SCF Done:  E(RB3LYP) =  -2520.26854133     A.U. after    9 cycles
 Optimization completed.
    -- Stationary point found.

                         Standard orientation:
 ---------------------------------------------------------------------
 Center     Atomic      Atomic             Coordinates (Angstroms)
 Number     Number       Type             X           Y           Z
 ---------------------------------------------------------------------
      1          6           0       -3.793755   -1.918701   -0.378346
      2          6           0       -3.943789   -0.634817   -1.276091
      3          6           0       -2.822183   -0.404795   -2.285016
      4          6           0       -1.838588   -1.292845   -2.603749
      5          6           0       -2.554817    0.984308   -2.410221
      6          6           0       -3.227729    1.690506   -1.341540
      7          6           0        2.787084   -0.726403   -2.748723
      8          6           0       -3.889373    0.710594   -0.525063
      9          6           0       -2.638800    2.830271   -0.793077
     10          6           0        3.931101   -0.831843   -1.644176
     11          6           0       -1.404303    3.345100   -1.352458
     12          6           0       -0.771225    2.657125   -2.391251
     13          6           0       -1.322848    1.422100   -2.890269
     14          6           0        0.890444    2.911166    1.948273
     15          6           0        0.658285    2.546714   -2.439758
     16          6           0        1.554332    3.403207    0.824780
     17          6           0        2.721250    2.717105    0.374271
     18          6           0        0.753703   -1.460669    2.933375
     19          6           0       -0.154265   -0.326876    3.288930
     20          6           0        0.091931    1.038010    3.150614
     21          6           0        3.881272    0.493366   -0.917665
     22          6           0        3.080479    1.416953   -1.656894
     23          6           0        2.266183    0.707531   -2.610959
     24          6           0        1.023431    1.223370   -2.936525
     25          6           0       -0.252875    0.497084   -3.181125
     26          6           0       -0.516070   -0.865282   -3.010910
     27          6           0        0.427509   -1.934345   -2.610879
     28          6           0        1.796318   -1.831689   -2.362349
     29          6           0        2.343830   -2.598952   -1.288251
     30          6           0        3.445139   -1.903672   -0.694945
     31          6           0        3.516088   -1.788399    0.673145
     32          6           0        2.484975   -2.360228    1.478793
     33          6           0        4.094527   -0.579855    1.375671
     34          6           0        1.601495   -3.285764    0.923964
     35          6           0        1.530563   -3.421468   -0.505802
     36          6           0        0.173395   -3.646894   -0.872623
     37          6           0        3.083839   -0.281002    2.571146
     38          6           0       -0.346791   -2.950294   -1.940585
     39          6           0       -1.835510   -2.720497   -2.117642
     40          6           0        2.064955   -1.422738    2.494571
     41          6           0       -2.748902   -3.030990   -0.847607
     42          6           0       -1.917531   -3.290384    0.397088
     43          6           0       -0.622460   -3.734236    0.368653
     44          6           0        0.286045   -3.415038    1.450987
     45          6           0        1.322194    1.691568    2.626457
     46          6           0        2.526018    1.112647    2.253123
     47          6           0       -0.105712   -2.542551    2.465843
     48          6           0        3.224230    1.645418    1.109619
     49          6           0       -1.462167   -2.121217    2.517481
     50          6           0        3.952530    0.606919    0.451175
     51          6           0       -1.515715   -0.806255    3.072888
     52          6           0       -2.556468    0.031440    2.678514
     53          6           0       -2.307395    1.433024    2.551653
     54          6           0       -1.027556    1.918283    2.810564
     55          6           0       -0.535954    3.030817    2.039457
     56          6           0        2.647434    2.600480   -1.058864
     57          6           0        1.434115    3.213200   -1.490764
     58          6           0        0.783277    3.807239   -0.336224
     59          6           0       -0.600834    3.867245   -0.267154
     60          6           0       -1.281764    3.545434    0.971213
     61          6           0       -2.563406    2.957710    0.642222
     62          6           0       -3.084708    1.940632    1.436688
     63          6           0       -3.791412    0.824955    0.842507
     64          6           0       -3.485860   -0.371251    1.645829
     65          6           0       -3.367727   -1.598708    1.048280
     66          6           0       -2.357218   -2.494809    1.493146
     67          1           0        3.177140   -0.895393   -3.756398
     68          1           0        4.908083   -1.050122   -2.083310
     69          1           0        5.116691   -0.732490    1.731654
     70          1           0        3.589033   -0.280044    3.540842
     71          1           0       -4.902375   -0.710820   -1.800725
     72          1           0       -4.776968   -2.393378   -0.350608
     73          1           0       -3.311833   -3.930554   -1.101325
     74          1           0       -2.193328   -3.375506   -2.920619
 ---------------------------------------------------------------------

 The electronic state is 1-A.
 Alpha  occ. eigenvalues --  -10.22211 -10.22194 -10.22161 -10.22102 -10.21986
 Alpha  occ. eigenvalues --  -10.21958 -10.21930 -10.21926 -10.21886 -10.21859
 Alpha  occ. eigenvalues --  -10.21782 -10.21676 -10.21665 -10.21576 -10.21560
 Alpha  occ. eigenvalues --  -10.21490 -10.21467 -10.21366 -10.21351 -10.21321
 Alpha  occ. eigenvalues --  -10.21226 -10.21217 -10.21108 -10.20992 -10.20981
 Alpha  occ. eigenvalues --  -10.20960 -10.20885 -10.20877 -10.20857 -10.20837
 Alpha  occ. eigenvalues --  -10.20816 -10.20786 -10.20744 -10.20731 -10.20728
 Alpha  occ. eigenvalues --  -10.20716 -10.20703 -10.20674 -10.20667 -10.20633
 Alpha  occ. eigenvalues --  -10.20629 -10.20612 -10.20609 -10.20588 -10.20568
 Alpha  occ. eigenvalues --  -10.20566 -10.20557 -10.20539 -10.20526 -10.20522
 Alpha  occ. eigenvalues --  -10.20487 -10.20482 -10.20475 -10.20440 -10.20273
 Alpha  occ. eigenvalues --  -10.20271 -10.20269 -10.20240 -10.20230 -10.20205
 Alpha  occ. eigenvalues --  -10.20205 -10.20175 -10.20110 -10.20074 -10.20015
 Alpha  occ. eigenvalues --  -10.19984  -0.96303  -0.95025  -0.94665  -0.93831
 Alpha  occ. eigenvalues --   -0.91788  -0.91621  -0.90915  -0.90675  -0.90053
 Alpha  occ. eigenvalues --   -0.87840  -0.87542  -0.86870  -0.86665  -0.85371
 Alpha  occ. eigenvalues --   -0.83710  -0.83274  -0.81275  -0.80803  -0.80369
 Alpha  occ. eigenvalues --   -0.80056  -0.79709  -0.78839  -0.78222  -0.77610
 Alpha  occ. eigenvalues --   -0.76839  -0.74622  -0.74484  -0.73778  -0.73633
 Alpha  occ. eigenvalues --   -0.72844  -0.72705  -0.72360  -0.72255  -0.70191
 Alpha  occ. eigenvalues --   -0.69753  -0.67262  -0.66297  -0.65711  -0.65457
 Alpha  occ. eigenvalues --   -0.65237  -0.64368  -0.64098  -0.63861  -0.63398
 Alpha  occ. eigenvalues --   -0.62026  -0.61914  -0.61405  -0.60539  -0.59023
 Alpha  occ. eigenvalues --   -0.57824  -0.57384  -0.57010  -0.56142  -0.55191
 Alpha  occ. eigenvalues --   -0.55079  -0.54216  -0.53439  -0.53243  -0.52683
 Alpha  occ. eigenvalues --   -0.52519  -0.51657  -0.51373  -0.50991  -0.49947
 Alpha  occ. eigenvalues --   -0.49697  -0.48929  -0.48714  -0.48139  -0.47943
 Alpha  occ. eigenvalues --   -0.47450  -0.47199  -0.47020  -0.46775  -0.46358
 Alpha  occ. eigenvalues --   -0.45780  -0.45382  -0.45343  -0.44975  -0.44672
 Alpha  occ. eigenvalues --   -0.44457  -0.44099  -0.44018  -0.43643  -0.43233
 Alpha  occ. eigenvalues --   -0.43023  -0.42859  -0.42568  -0.42214  -0.42054
 Alpha  occ. eigenvalues --   -0.41919  -0.41526  -0.41025  -0.40488  -0.40390
 Alpha  occ. eigenvalues --   -0.40196  -0.39920  -0.39585  -0.39314  -0.39099
 Alpha  occ. eigenvalues --   -0.38653  -0.38615  -0.38263  -0.37791  -0.37075
 Alpha  occ. eigenvalues --   -0.36907  -0.36367  -0.36050  -0.35993  -0.35463
 Alpha  occ. eigenvalues --   -0.35412  -0.35142  -0.34931  -0.34804  -0.34635
 Alpha  occ. eigenvalues --   -0.34464  -0.34212  -0.34018  -0.33578  -0.33087
 Alpha  occ. eigenvalues --   -0.32684  -0.31872  -0.31539  -0.29380  -0.28761
 Alpha  occ. eigenvalues --   -0.27617  -0.27414  -0.26552  -0.26104  -0.25362
 Alpha  occ. eigenvalues --   -0.24808  -0.24016  -0.23355  -0.22842  -0.21970
 Alpha  occ. eigenvalues --   -0.21355  -0.20488
 Alpha virt. eigenvalues --   -0.11608  -0.10299  -0.09658  -0.07664  -0.07240
 Alpha virt. eigenvalues --   -0.06081  -0.05352  -0.05162  -0.03695  -0.03242
 Alpha virt. eigenvalues --   -0.02686  -0.02266  -0.01880  -0.01508   0.00513

 Mulliken charges:
               1
     1  C   -0.134213
     2  C   -0.144929
     3  C   -0.007123
     4  C   -0.043354
     5  C    0.016310
     6  C    0.019846
     7  C   -0.120510
     8  C   -0.024420
     9  C   -0.010177
    10  C   -0.172224
    11  C    0.001516
    12  C   -0.006273
    13  C   -0.009882
    14  C   -0.004273
    15  C   -0.001797
    16  C   -0.005960
    17  C   -0.010700
    18  C    0.014195
    19  C   -0.004249
    20  C   -0.004976
    21  C   -0.003907
    22  C    0.031370
    23  C   -0.025564
    24  C    0.009167
    25  C   -0.004232
    26  C    0.019886
    27  C    0.043493
    28  C   -0.028326
    29  C    0.028108
    30  C   -0.005554
    31  C   -0.005711
    32  C    0.034646
    33  C   -0.171969
    34  C   -0.007702
    35  C   -0.013554
    36  C    0.001878
    37  C   -0.124547
    38  C   -0.049576
    39  C   -0.113699
    40  C   -0.027975
    41  C   -0.137512
    42  C   -0.020649
    43  C   -0.005454
    44  C   -0.007720
    45  C    0.015751
    46  C   -0.025536
    47  C   -0.001749
    48  C    0.031734
    49  C   -0.015134
    50  C   -0.005338
    51  C   -0.003579
    52  C   -0.009572
    53  C   -0.003198
    54  C   -0.004979
    55  C   -0.002246
    56  C   -0.010396
    57  C   -0.007610
    58  C   -0.011456
    59  C   -0.005199
    60  C   -0.001237
    61  C   -0.005115
    62  C   -0.006044
    63  C    0.001397
    64  C    0.011569
    65  C   -0.030536
    66  C    0.047679
    67  H    0.162764
    68  H    0.158799
    69  H    0.159294
    70  H    0.164244
    71  H    0.163391
    72  H    0.154745
    73  H    0.150930
    74  H    0.164924
 Sum of Mulliken charges =  -0.00000

 Dipole moment (field-independent basis, Debye):
    X=              0.7978    Y=             -3.2779    Z=             -1.7758  Tot=              3.8124
 Quadrupole moment (field-independent basis, Debye-Ang):
   XX=           -342.2520   YY=           -377.7916   ZZ=           -367.3629
   XY=              6.9083   XZ=              7.7730   YZ=              7.7015

 Normal termination of Gaussian 16 at Wed Jul 20 18:58:09 2022.
