 Gaussian 16, Revision A.03,
 Gaussian 16:  ES64L-G16RevA.03 25-Dec-2016

 -------------------------------------------------
 #P opt b3lyp/6-311G(d, p) empiricaldispersion=GD3
 -------------------------------------------------

 -----
 force
 -----
 Symbolic Z-matrix:
 Charge =  0 Multiplicity = 1

 SCF Done:  E(RB3LYP) =  -2520.26393271     A.U. after   17 cycles
 SCF Done:  E(RB3LYP) =  -2520.27204134     A.U. after   16 cycles
 SCF Done:  E(RB3LYP) =  -2520.27225255     A.U. after    9 cycles
 SCF Done:  E(RB3LYP) =  -2520.27227921     A.U. after    8 cycles
 Optimization completed.
    -- Stationary point found.

                         Standard orientation:
 ---------------------------------------------------------------------
 Center     Atomic      Atomic             Coordinates (Angstroms)
 Number     Number       Type             X           Y           Z
 ---------------------------------------------------------------------
      1          6           0       -3.324397   -2.126902   -0.727709
      2          6           0       -3.602040   -0.953990   -1.418301
      3          6           0       -2.762806   -0.556720   -2.536194
      4          6           0       -1.649679   -1.317945   -2.886095
      5          6           0       -2.654342    0.870501   -2.530727
      6          6           0       -3.420735    1.384838   -1.418606
      7          6           0        2.899006   -0.261720   -2.679453
      8          6           0       -3.969838    0.252363   -0.698112
      9          6           0       -2.948803    2.499207   -0.726167
     10          6           0        4.026397   -0.356313   -1.555090
     11          6           0       -1.779582    3.198363   -1.171541
     12          6           0       -1.040239    2.674569   -2.205171
     13          6           0       -1.436996    1.460996   -2.862972
     14          6           0        0.419893    2.695600    2.172963
     15          6           0        0.419893    2.695600   -2.172963
     16          6           0        1.091800    3.353155    1.162872
     17          6           0        2.319776    2.827813    0.732917
     18          6           0        0.688316   -1.710970    2.808841
     19          6           0       -0.353910   -0.716467    3.199511
     20          6           0       -0.245801    0.671512    3.170708
     21          6           0        4.086643    1.013088   -0.808115
     22          6           0        2.913530    1.761179   -1.392490
     23          6           0        2.213515    1.060990   -2.389152
     24          6           0        0.925623    1.484540   -2.752411
     25          6           0       -0.245801    0.671512   -3.170709
     26          6           0       -0.353910   -0.716467   -3.199511
     27          6           0        0.688316   -1.710970   -2.808841
     28          6           0        2.010507   -1.488666   -2.454721
     29          6           0        2.573278   -2.263981   -1.383693
     30          6           0        3.543650   -1.477677   -0.683876
     31          6           0        3.543650   -1.477677    0.683876
     32          6           0        2.573278   -2.263981    1.383693
     33          6           0        4.026397   -0.356313    1.555090
     34          6           0        1.845525   -3.245691    0.720199
     35          6           0        1.845526   -3.245691   -0.720200
     36          6           0        0.532550   -3.577751   -1.165594
     37          6           0        2.899006   -0.261720    2.679453
     38          6           0       -0.017618   -2.835238   -2.210151
     39          6           0       -1.432125   -2.581952   -2.233881
     40          6           0        2.010507   -1.488666    2.454721
     41          6           0       -2.248219   -2.985968   -1.169668
     42          6           0       -1.635233   -3.583528   -0.000000
     43          6           0       -0.281931   -3.877826   -0.000000
     44          6           0        0.532550   -3.577751    1.165594
     45          6           0        0.925623    1.484540    2.752411
     46          6           0        2.213515    1.060990    2.389152
     47          6           0       -0.017618   -2.835238    2.210151
     48          6           0        2.913530    1.761179    1.392490
     49          6           0       -1.432125   -2.581952    2.233881
     50          6           0        4.086643    1.013088    0.808115
     51          6           0       -1.649679   -1.317945    2.886095
     52          6           0       -2.762806   -0.556720    2.536193
     53          6           0       -2.654342    0.870501    2.530727
     54          6           0       -1.436996    1.460996    2.862972
     55          6           0       -1.040239    2.674569    2.205171
     56          6           0        2.319776    2.827813   -0.732916
     57          6           0        1.091800    3.353155   -1.162872
     58          6           0        0.391578    4.073042    0.000000
     59          6           0       -1.172481    3.978366    0.000000
     60          6           0       -1.779582    3.198363    1.171541
     61          6           0       -2.948803    2.499207    0.726167
     62          6           0       -3.420735    1.384838    1.418606
     63          6           0       -3.969838    0.252363    0.698112
     64          6           0       -3.602040   -0.953990    1.418301
     65          6           0       -3.324397   -2.126902    0.727709
     66          6           0       -2.248219   -2.985968    1.169668
     67          1           0        3.326616   -0.270323   -3.686637
     68          1           0        4.995295   -0.593140   -2.000311
     69          1           0        5.008778    1.523137   -1.095834
     70          1           0        5.008778    1.523137    1.095834
     71          1           0        4.995295   -0.593140    2.000311
     72          1           0        3.326616   -0.270323    3.686637
     73          1           0        0.663522    5.132817    0.000000
     74          1           0       -1.571029    4.998365    0.000000
 ---------------------------------------------------------------------

 The electronic state is 1-A.
 Alpha  occ. eigenvalues --  -10.22245 -10.22105 -10.22062 -10.22062 -10.21966
 Alpha  occ. eigenvalues --  -10.21966 -10.21935 -10.21935 -10.21745 -10.21744
 Alpha  occ. eigenvalues --  -10.21528 -10.21526 -10.21494 -10.21494 -10.21349
 Alpha  occ. eigenvalues --  -10.21341 -10.21329 -10.21317 -10.21314 -10.21265
 Alpha  occ. eigenvalues --  -10.21174 -10.21174 -10.21127 -10.21125 -10.21066
 Alpha  occ. eigenvalues --  -10.21064 -10.21047 -10.21046 -10.20998 -10.20984
 Alpha  occ. eigenvalues --  -10.20984 -10.20967 -10.20955 -10.20954 -10.20903
 Alpha  occ. eigenvalues --  -10.20903 -10.20868 -10.20867 -10.20855 -10.20828
 Alpha  occ. eigenvalues --  -10.20828 -10.20730 -10.20682 -10.20680 -10.20663
 Alpha  occ. eigenvalues --  -10.20663 -10.20636 -10.20636 -10.20623 -10.20623
 Alpha  occ. eigenvalues --  -10.20587 -10.20587 -10.20539 -10.20529 -10.20528
 Alpha  occ. eigenvalues --  -10.20475 -10.20455 -10.20452 -10.20392 -10.20389
 Alpha  occ. eigenvalues --  -10.20192 -10.20162 -10.20053 -10.20015 -10.20010
 Alpha  occ. eigenvalues --  -10.20010  -0.96498  -0.95018  -0.94471  -0.94141
 Alpha  occ. eigenvalues --   -0.92010  -0.91270  -0.91192  -0.90816  -0.90212
 Alpha  occ. eigenvalues --   -0.88067  -0.87671  -0.87003  -0.86163  -0.85652
 Alpha  occ. eigenvalues --   -0.83492  -0.83471  -0.81354  -0.80651  -0.80554
 Alpha  occ. eigenvalues --   -0.80318  -0.79603  -0.78775  -0.78138  -0.77911
 Alpha  occ. eigenvalues --   -0.76831  -0.74643  -0.74489  -0.73828  -0.73697
 Alpha  occ. eigenvalues --   -0.72748  -0.72711  -0.72587  -0.72297  -0.70440
 Alpha  occ. eigenvalues --   -0.69555  -0.67438  -0.66196  -0.65996  -0.65477
 Alpha  occ. eigenvalues --   -0.65413  -0.64237  -0.63904  -0.63891  -0.63444
 Alpha  occ. eigenvalues --   -0.62505  -0.61992  -0.61290  -0.60081  -0.58882
 Alpha  occ. eigenvalues --   -0.58308  -0.57024  -0.56982  -0.56466  -0.54884
 Alpha  occ. eigenvalues --   -0.54623  -0.54236  -0.54055  -0.53224  -0.52886
 Alpha  occ. eigenvalues --   -0.52576  -0.52039  -0.51897  -0.51179  -0.50069
 Alpha  occ. eigenvalues --   -0.49694  -0.49095  -0.48450  -0.48187  -0.47669
 Alpha  occ. eigenvalues --   -0.47348  -0.47181  -0.47102  -0.46610  -0.46156
 Alpha  occ. eigenvalues --   -0.45449  -0.45159  -0.45154  -0.44924  -0.44869
 Alpha  occ. eigenvalues --   -0.44861  -0.43944  -0.43816  -0.43637  -0.43524
 Alpha  occ. eigenvalues --   -0.43217  -0.43177  -0.42981  -0.42551  -0.42420
 Alpha  occ. eigenvalues --   -0.41421  -0.41219  -0.40922  -0.40748  -0.40567
 Alpha  occ. eigenvalues --   -0.40479  -0.39937  -0.39648  -0.39285  -0.38883
 Alpha  occ. eigenvalues --   -0.38880  -0.38361  -0.38258  -0.38087  -0.37602
 Alpha  occ. eigenvalues --   -0.36648  -0.36340  -0.35933  -0.35682  -0.35381
 Alpha  occ. eigenvalues --   -0.35295  -0.35101  -0.34845  -0.34790  -0.34773
 Alpha  occ. eigenvalues --   -0.34543  -0.34305  -0.34189  -0.33359  -0.33323
 Alpha  occ. eigenvalues --   -0.32926  -0.31797  -0.31731  -0.29552  -0.28380
 Alpha  occ. eigenvalues --   -0.27870  -0.27554  -0.26740  -0.25672  -0.25668
 Alpha  occ. eigenvalues --   -0.24941  -0.24012  -0.23582  -0.22939  -0.22202
 Alpha  occ. eigenvalues --   -0.21925  -0.20258
 Alpha virt. eigenvalues --   -0.12370  -0.10606  -0.09999  -0.07940  -0.06901
 Alpha virt. eigenvalues --   -0.06289  -0.05494  -0.04309  -0.03750  -0.03528
 Alpha virt. eigenvalues --   -0.02780  -0.02740  -0.02244  -0.01068   0.00785

 Mulliken charges:
               1
     1  C   -0.004438
     2  C   -0.002709
     3  C   -0.007282
     4  C   -0.006364
     5  C   -0.003147
     6  C   -0.007020
     7  C   -0.133267
     8  C   -0.001227
     9  C    0.017791
    10  C   -0.145246
    11  C   -0.017974
    12  C    0.003224
    13  C   -0.007177
    14  C    0.008872
    15  C    0.008872
    16  C   -0.013894
    17  C    0.021372
    18  C    0.015849
    19  C   -0.000845
    20  C   -0.005145
    21  C   -0.132245
    22  C   -0.012074
    23  C   -0.007191
    24  C    0.013135
    25  C   -0.005145
    26  C   -0.000845
    27  C    0.015849
    28  C   -0.032070
    29  C    0.021308
    30  C    0.006338
    31  C    0.006338
    32  C    0.021308
    33  C   -0.145246
    34  C   -0.008377
    35  C   -0.008377
    36  C   -0.006800
    37  C   -0.133267
    38  C   -0.001363
    39  C   -0.002507
    40  C   -0.032070
    41  C    0.000961
    42  C   -0.003427
    43  C   -0.012644
    44  C   -0.006800
    45  C    0.013135
    46  C   -0.007191
    47  C   -0.001363
    48  C   -0.012074
    49  C   -0.002507
    50  C   -0.132245
    51  C   -0.006364
    52  C   -0.007282
    53  C   -0.003147
    54  C   -0.007177
    55  C    0.003224
    56  C    0.021372
    57  C   -0.013894
    58  C   -0.164880
    59  C   -0.151012
    60  C   -0.017974
    61  C    0.017791
    62  C   -0.007020
    63  C   -0.001227
    64  C   -0.002709
    65  C   -0.004438
    66  C    0.000961
    67  H    0.158020
    68  H    0.145321
    69  H    0.145671
    70  H    0.145671
    71  H    0.145321
    72  H    0.158020
    73  H    0.164354
    74  H    0.168610
 Sum of Mulliken charges =  -0.00000

 Dipole moment (field-independent basis, Debye):
    X=              5.1850    Y=              2.8994    Z=              0.0000  Tot=              5.9407
 Quadrupole moment (field-independent basis, Debye-Ang):
   XX=           -351.0533   YY=           -366.1921   ZZ=           -371.4430
   XY=             -0.3310   XZ=             -0.0000   YZ=              0.0000

 Normal termination of Gaussian 16 at Wed Jul 20 08:12:31 2022.
