 Gaussian 16, Revision A.03,
 Gaussian 16:  ES64L-G16RevA.03 25-Dec-2016

 -------------------------------------------------
 #P opt b3lyp/6-311G(d, p) empiricaldispersion=GD3
 -------------------------------------------------

 -----
 force
 -----
 Symbolic Z-matrix:
 Charge =  0 Multiplicity = 1

 SCF Done:  E(RB3LYP) =  -2520.26231812     A.U. after   18 cycles
 SCF Done:  E(RB3LYP) =  -2520.27034998     A.U. after   16 cycles
 SCF Done:  E(RB3LYP) =  -2520.27055181     A.U. after   10 cycles
 SCF Done:  E(RB3LYP) =  -2520.27057791     A.U. after    9 cycles
 Optimization completed.
    -- Stationary point found.

                         Standard orientation:
 ---------------------------------------------------------------------
 Center     Atomic      Atomic             Coordinates (Angstroms)
 Number     Number       Type             X           Y           Z
 ---------------------------------------------------------------------
      1          6           0       -3.721631   -1.987208   -0.635491
      2          6           0       -3.948472   -0.643231   -1.429054
      3          6           0       -2.846689   -0.293288   -2.436948
      4          6           0       -1.824958   -1.135541   -2.798244
      5          6           0       -2.604213    1.102396   -2.427682
      6          6           0       -3.295701    1.689762   -1.295374
      7          6           0        2.794188   -0.455925   -2.757437
      8          6           0       -3.934119    0.628639   -0.569944
      9          6           0       -2.735563    2.785280   -0.636459
     10          6           0        3.948363   -0.634073   -1.673017
     11          6           0       -1.506610    3.369971   -1.128701
     12          6           0       -0.847321    2.792308   -2.214041
     13          6           0       -1.368114    1.603046   -2.841780
     14          6           0        0.726332    2.710673    2.188815
     15          6           0        0.586923    2.705815   -2.238379
     16          6           0        1.410080    3.296332    1.116346
     17          6           0        2.600661    2.688741    0.650386
     18          6           0        0.678339   -1.713126    2.816386
     19          6           0       -0.270271   -0.637799    3.237347
     20          6           0       -0.054213    0.738243    3.211189
     21          6           0        4.143240    0.728094   -0.939864
     22          6           0        3.024679    1.575130   -1.493117
     23          6           0        2.233867    0.925756   -2.471558
     24          6           0        0.982594    1.447817   -2.817333
     25          6           0       -0.267868    0.725657   -3.183231
     26          6           0       -0.498216   -0.652951   -3.154980
     27          6           0        0.469613   -1.723335   -2.790568
     28          6           0        1.818670   -1.607030   -2.491651
     29          6           0        2.360826   -2.422166   -1.438806
     30          6           0        3.412155   -1.711798   -0.779025
     31          6           0        3.460598   -1.706437    0.588802
     32          6           0        2.462723   -2.414792    1.328265
     33          6           0        4.058678   -0.621234    1.434300
     34          6           0        1.638041   -3.340528    0.696132
     35          6           0        1.585980   -3.344327   -0.743971
     36          6           0        0.235916   -3.574479   -1.138541
     37          6           0        2.983930   -0.435584    2.596698
     38          6           0       -0.300864   -2.789292   -2.163200
     39          6           0       -1.688942   -2.439142   -2.139584
     40          6           0        1.999214   -1.593921    2.413862
     41          6           0       -2.488471   -2.781428   -1.070030
     42          6           0       -1.875719   -3.384937    0.078802
     43          6           0       -0.552316   -3.807154    0.047720
     44          6           0        0.320110   -3.567525    1.187104
     45          6           0        1.164175    1.459578    2.754639
     46          6           0        2.393035    0.938815    2.332882
     47          6           0       -0.133254   -2.778886    2.243059
     48          6           0        3.114431    1.582130    1.297803
     49          6           0       -1.518244   -2.404511    2.306998
     50          6           0        4.197703    0.735041    0.678496
     51          6           0       -1.614780   -1.134234    2.958183
     52          6           0       -2.668490   -0.288640    2.610059
     53          6           0       -2.447648    1.124381    2.596789
     54          6           0       -1.188659    1.618226    2.924910
     55          6           0       -0.705993    2.799218    2.257316
     56          6           0        2.555598    2.688215   -0.820990
     57          6           0        1.338203    3.293521   -1.212555
     58          6           0        0.651168    3.775561   -0.025731
     59          6           0       -0.729634    3.807924    0.017678
     60          6           0       -1.434364    3.376357    1.213638
     61          6           0       -2.691198    2.791347    0.806031
     62          6           0       -3.208660    1.701767    1.505065
     63          6           0       -3.872166    0.625310    0.806142
     64          6           0       -3.568230   -0.627818    1.529272
     65          6           0       -3.421283   -1.811998    0.857357
     66          6           0       -2.395015   -2.724203    1.257857
     67          1           0        3.186673   -0.510976   -3.777548
     68          1           0        4.879393   -0.947518   -2.150575
     69          1           0        5.094145    1.160135   -1.258521
     70          1           0        5.165538    1.174556    0.928839
     71          1           0        5.021686   -0.930693    1.846662
     72          1           0        3.447585   -0.473609    3.587290
     73          1           0       -4.910521   -0.723987   -1.944719
     74          1           0       -4.617353   -2.602988   -0.765706
 ---------------------------------------------------------------------

 The electronic state is 1-A.
 Alpha  occ. eigenvalues --  -10.22320 -10.22269 -10.22066 -10.22008 -10.21951
 Alpha  occ. eigenvalues --  -10.21918 -10.21891 -10.21834 -10.21804 -10.21595
 Alpha  occ. eigenvalues --  -10.21534 -10.21520 -10.21519 -10.21494 -10.21457
 Alpha  occ. eigenvalues --  -10.21453 -10.21447 -10.21352 -10.21331 -10.21322
 Alpha  occ. eigenvalues --  -10.21266 -10.21249 -10.21219 -10.21216 -10.21143
 Alpha  occ. eigenvalues --  -10.21129 -10.21125 -10.21107 -10.21000 -10.20993
 Alpha  occ. eigenvalues --  -10.20949 -10.20829 -10.20814 -10.20809 -10.20798
 Alpha  occ. eigenvalues --  -10.20750 -10.20748 -10.20730 -10.20728 -10.20716
 Alpha  occ. eigenvalues --  -10.20714 -10.20682 -10.20682 -10.20656 -10.20648
 Alpha  occ. eigenvalues --  -10.20632 -10.20630 -10.20610 -10.20604 -10.20601
 Alpha  occ. eigenvalues --  -10.20600 -10.20557 -10.20526 -10.20477 -10.20477
 Alpha  occ. eigenvalues --  -10.20401 -10.20348 -10.20299 -10.20281 -10.20252
 Alpha  occ. eigenvalues --  -10.20251 -10.20205 -10.20184 -10.20156 -10.20023
 Alpha  occ. eigenvalues --  -10.19985  -0.96388  -0.95213  -0.94417  -0.94000
 Alpha  occ. eigenvalues --   -0.91959  -0.91362  -0.91136  -0.90737  -0.90196
 Alpha  occ. eigenvalues --   -0.88056  -0.87587  -0.86971  -0.86421  -0.85505
 Alpha  occ. eigenvalues --   -0.83528  -0.83450  -0.81360  -0.80758  -0.80504
 Alpha  occ. eigenvalues --   -0.80208  -0.79602  -0.78742  -0.78305  -0.77662
 Alpha  occ. eigenvalues --   -0.76943  -0.74571  -0.74494  -0.73991  -0.73716
 Alpha  occ. eigenvalues --   -0.72917  -0.72672  -0.72390  -0.72275  -0.70259
 Alpha  occ. eigenvalues --   -0.69723  -0.66983  -0.66571  -0.65998  -0.65645
 Alpha  occ. eigenvalues --   -0.65171  -0.64586  -0.64035  -0.63785  -0.63283
 Alpha  occ. eigenvalues --   -0.62072  -0.61832  -0.61325  -0.60493  -0.59061
 Alpha  occ. eigenvalues --   -0.57851  -0.57325  -0.56968  -0.56601  -0.55252
 Alpha  occ. eigenvalues --   -0.54630  -0.54254  -0.53846  -0.52842  -0.52712
 Alpha  occ. eigenvalues --   -0.52595  -0.52021  -0.51691  -0.50692  -0.50190
 Alpha  occ. eigenvalues --   -0.49818  -0.49538  -0.48437  -0.47942  -0.47676
 Alpha  occ. eigenvalues --   -0.47453  -0.47188  -0.47110  -0.46450  -0.46264
 Alpha  occ. eigenvalues --   -0.45947  -0.45694  -0.45187  -0.44897  -0.44622
 Alpha  occ. eigenvalues --   -0.44435  -0.44207  -0.43990  -0.43755  -0.43510
 Alpha  occ. eigenvalues --   -0.43449  -0.42912  -0.42673  -0.42215  -0.41765
 Alpha  occ. eigenvalues --   -0.41398  -0.41159  -0.41004  -0.40876  -0.40571
 Alpha  occ. eigenvalues --   -0.40502  -0.40005  -0.39689  -0.39262  -0.39013
 Alpha  occ. eigenvalues --   -0.38646  -0.38529  -0.38187  -0.38068  -0.37575
 Alpha  occ. eigenvalues --   -0.36672  -0.36324  -0.35997  -0.35764  -0.35591
 Alpha  occ. eigenvalues --   -0.35315  -0.35203  -0.34944  -0.34764  -0.34671
 Alpha  occ. eigenvalues --   -0.34507  -0.34448  -0.34288  -0.33282  -0.33226
 Alpha  occ. eigenvalues --   -0.32398  -0.31871  -0.31596  -0.30176  -0.28658
 Alpha  occ. eigenvalues --   -0.27626  -0.27047  -0.26838  -0.26229  -0.25387
 Alpha  occ. eigenvalues --   -0.24610  -0.24249  -0.23581  -0.22662  -0.22345
 Alpha  occ. eigenvalues --   -0.21339  -0.20597
 Alpha virt. eigenvalues --   -0.11967  -0.10670  -0.09934  -0.08234  -0.07196
 Alpha virt. eigenvalues --   -0.06379  -0.05251  -0.04664  -0.04010  -0.03217
 Alpha virt. eigenvalues --   -0.02736  -0.02382  -0.02236  -0.00618   0.00767

 Mulliken charges:
               1
     1  C   -0.150340
     2  C   -0.148128
     3  C   -0.023978
     4  C    0.002839
     5  C    0.015115
     6  C    0.018986
     7  C   -0.131980
     8  C   -0.020143
     9  C   -0.011566
    10  C   -0.145971
    11  C    0.003879
    12  C   -0.006919
    13  C   -0.009492
    14  C   -0.001472
    15  C   -0.000538
    16  C   -0.002825
    17  C    0.003211
    18  C    0.016693
    19  C   -0.004792
    20  C   -0.003856
    21  C   -0.133689
    22  C   -0.005876
    23  C   -0.008675
    24  C    0.013204
    25  C   -0.000191
    26  C   -0.007295
    27  C    0.016626
    28  C   -0.032333
    29  C    0.021788
    30  C    0.005695
    31  C    0.005608
    32  C    0.021946
    33  C   -0.145628
    34  C   -0.009303
    35  C   -0.012857
    36  C   -0.002292
    37  C   -0.133567
    38  C   -0.004965
    39  C    0.004100
    40  C   -0.031629
    41  C   -0.019433
    42  C    0.015092
    43  C   -0.019303
    44  C   -0.006926
    45  C    0.017728
    46  C   -0.007996
    47  C   -0.000946
    48  C   -0.006044
    49  C   -0.007486
    50  C   -0.134074
    51  C   -0.005633
    52  C   -0.006334
    53  C   -0.005255
    54  C   -0.003071
    55  C   -0.005740
    56  C    0.001908
    57  C   -0.003462
    58  C   -0.011136
    59  C   -0.005272
    60  C    0.000001
    61  C   -0.005073
    62  C   -0.004350
    63  C    0.003907
    64  C    0.006645
    65  C   -0.022510
    66  C    0.024519
    67  H    0.160433
    68  H    0.146265
    69  H    0.149355
    70  H    0.149281
    71  H    0.146196
    72  H    0.160404
    73  H    0.169454
    74  H    0.169469
 Sum of Mulliken charges =  -0.00000

 Dipole moment (field-independent basis, Debye):
    X=              3.2512    Y=             -1.1491    Z=             -0.8601  Tot=              3.5540
 Quadrupole moment (field-independent basis, Debye-Ang):
   XX=           -333.6445   YY=           -383.7257   ZZ=           -370.0309
   XY=              5.5200   XZ=              4.6642   YZ=              1.4663

 Normal termination of Gaussian 16 at Tue Jul 19 23:46:18 2022.
