 Gaussian 16, Revision A.03,
 Gaussian 16:  ES64L-G16RevA.03 25-Dec-2016

 ------------------------------------------------
 #P opt b3lyp/6-31G(d, p) empiricaldispersion=GD3
 ------------------------------------------------

 ------------------------------
 Gaussian input prepared by ASE
 ------------------------------
 Symbolic Z-matrix:
 Charge =  0 Multiplicity = 1

 SCF Done:  E(RB3LYP) =  -3200.96967380     A.U. after   18 cycles
 SCF Done:  E(RB3LYP) =  -3201.00449794     A.U. after   14 cycles
 SCF Done:  E(RB3LYP) =  -3201.02362562     A.U. after   14 cycles
 SCF Done:  E(RB3LYP) =  -3201.02573292     A.U. after   13 cycles
 SCF Done:  E(RB3LYP) =  -3201.02586556     A.U. after   11 cycles
 SCF Done:  E(RB3LYP) =  -3201.02587627     A.U. after    9 cycles
 Optimization completed.
    -- Stationary point found.

                         Input orientation:
 ---------------------------------------------------------------------
 Center     Atomic      Atomic             Coordinates (Angstroms)
 Number     Number       Type             X           Y           Z
 ---------------------------------------------------------------------
      1          6           0       -2.204240   -3.018749   -2.035833
      2          6           0       -2.550549   -2.360223    2.393454
      3          6           0        1.785651    3.830864   -0.523759
      4          6           0        0.005268    2.379283    3.387434
      5          6           0       -0.927564   -3.519944   -1.674891
      6          6           0       -3.509251   -2.335526    1.321082
      7          6           0        2.900238    3.088480   -0.033772
      8          6           0       -0.347144    3.434392    2.468697
      9          6           0       -0.683435   -3.866239   -0.270362
     10          6           0       -4.178165   -1.162777    1.034347
     11          6           0       -1.603372    3.464072    1.923793
     12          6           0        2.936400    2.557079    1.287832
     13          6           0       -1.743558   -3.700277    0.644442
     14          6           0        1.890527    2.982735    2.138342
     15          6           0       -3.018115   -3.181663    0.249859
     16          6           0        0.810951    3.783647    1.670784
     17          6           0       -3.237107   -2.823960   -1.073023
     18          6           0        0.671740    4.133869    0.298197
     19          6           0       -3.935892   -1.581673   -1.380512
     20          6           0       -0.671482    4.133946   -0.296683
     21          6           0       -3.326017   -0.987052   -2.529951
     22          6           0       -0.810747    3.784356   -1.669415
     23          6           0       -2.337785   -1.942973   -3.009981
     24          6           0        0.347345    3.435281   -2.467405
     25          6           0       -1.256476   -1.518903   -3.727714
     26          6           0        1.603618    3.464766   -1.922540
     27          6           0        0.024468   -2.145641   -3.536045
     28          6           0        2.582065    2.456287   -2.280556
     29          6           0        0.199370   -3.131971   -2.521118
     30          6           0        3.437971    2.323401   -1.142423
     31          6           0        1.500703   -3.257951   -2.012844
     32          6           0        4.094548    1.143551   -0.904015
     33          6           0        1.743308   -3.700135   -0.645804
     34          6           0        4.255427    0.647594    0.454187
     35          6           0        0.683209   -3.866421    0.268956
     36          6           0        3.589200    1.264213    1.541930
     37          6           0        0.927466   -3.520589    1.673613
     38          6           0        3.101042    0.408483    2.626704
     39          6           0       -0.199555   -3.132935    2.519955
     40          6           0       -1.015420   -1.155803    3.790386
     41          6           0       -0.338384    0.105096    4.065291
     42          6           0        1.957857    0.851149    3.437019
     43          6           0       -1.500805   -3.258584    2.011583
     44          6           0       -2.280777   -1.191697    3.168222
     45          6           0       -0.918966    1.337400    3.697936
     46          6           0        1.397969    2.122814    3.208880
     47          6           0       -2.945212    0.073872    2.835191
     48          6           0       -2.252798    1.342226    3.091973
     49          6           0       -3.917377    0.036014    1.804717
     50          6           0       -2.581975    2.455553    2.281460
     51          6           0       -4.094471    1.143348    0.904566
     52          6           0       -3.437784    2.323099    1.143292
     53          6           0       -4.395072   -0.773147   -0.351795
     54          6           0       -1.785429    3.830764    0.525211
     55          6           0       -4.255317    0.647930   -0.454002
     56          6           0       -2.900011    3.088531    0.034907
     57          6           0       -3.101230    0.409578   -2.626808
     58          6           0       -1.890416    2.983656   -2.137269
     59          6           0       -1.957799    0.852650   -3.436803
     60          6           0       -1.397928    2.124104   -3.208124
     61          6           0       -1.067627   -0.113753   -3.992102
     62          6           0       -0.005112    2.380612   -3.386542
     63          6           0        0.338371    0.106610   -4.065277
     64          6           0        0.919035    1.338776   -3.697336
     65          6           0        1.015415   -1.154382   -3.790822
     66          6           0        2.252836    1.343326   -3.091483
     67          6           0        2.280723   -1.190609   -3.168743
     68          6           0        2.945266    0.074798   -2.835118
     69          6           0        2.550443   -2.359522   -2.394396
     70          6           0        3.917358    0.036474   -1.804776
     71          6           0        3.508974   -2.335111   -1.321851
     72          6           0        4.178178   -1.162599   -1.034831
     73          6           0        3.017811   -3.181515   -0.251010
     74          6           0        4.394999   -0.773530    0.351539
     75          6           0        3.237022   -2.824596    1.072037
     76          6           0        3.935857   -1.582368    1.379903
     77          6           0        2.204112   -3.019729    2.034712
     78          6           0        3.325992   -0.988219    2.529666
     79          6           0       -0.024594   -2.146985    3.535294
     80          6           0        1.067658   -0.115319    3.992148
     81          6           0        2.337791   -1.944117    3.009363
     82          6           0        1.256439   -1.520376    3.727219
     83          6           0       -3.589430    1.265072   -1.541495
     84          6           0       -2.936234    2.557814   -1.286900
 ---------------------------------------------------------------------

 The electronic state is 1-A.
 Alpha  occ. eigenvalues --  -10.24423 -10.24421 -10.24388 -10.24386 -10.24364
 Alpha  occ. eigenvalues --  -10.24364 -10.24256 -10.24254 -10.24251 -10.24250
 Alpha  occ. eigenvalues --  -10.24208 -10.24179 -10.23716 -10.23716 -10.23714
 Alpha  occ. eigenvalues --  -10.23682 -10.23623 -10.23623 -10.23573 -10.23573
 Alpha  occ. eigenvalues --  -10.23460 -10.23460 -10.23335 -10.23335 -10.23044
 Alpha  occ. eigenvalues --  -10.23044 -10.23043 -10.23043 -10.23041 -10.23041
 Alpha  occ. eigenvalues --  -10.22982 -10.22982 -10.22952 -10.22951 -10.22904
 Alpha  occ. eigenvalues --  -10.22904 -10.22891 -10.22891 -10.22881 -10.22880
 Alpha  occ. eigenvalues --  -10.22856 -10.22855 -10.22787 -10.22786 -10.22783
 Alpha  occ. eigenvalues --  -10.22783 -10.22697 -10.22697 -10.22664 -10.22664
 Alpha  occ. eigenvalues --  -10.22647 -10.22647 -10.22598 -10.22598 -10.22597
 Alpha  occ. eigenvalues --  -10.22597 -10.22509 -10.22509 -10.22462 -10.22462
 Alpha  occ. eigenvalues --  -10.22412 -10.22411 -10.22411 -10.22410 -10.22407
 Alpha  occ. eigenvalues --  -10.22407 -10.22370 -10.22368 -10.22356 -10.22356
 Alpha  occ. eigenvalues --  -10.22307 -10.22307 -10.22231 -10.22231 -10.22222
 Alpha  occ. eigenvalues --  -10.22222 -10.22175 -10.22175 -10.22161 -10.22161
 Alpha  occ. eigenvalues --  -10.22139 -10.22139 -10.21818 -10.21818  -0.96434
 Alpha  occ. eigenvalues --   -0.95445  -0.95073  -0.94861  -0.93027  -0.93022
 Alpha  occ. eigenvalues --   -0.92463  -0.92056  -0.91642  -0.89772  -0.89344
 Alpha  occ. eigenvalues --   -0.89178  -0.88031  -0.87546  -0.87356  -0.87238
 Alpha  occ. eigenvalues --   -0.85309  -0.84035  -0.83755  -0.82935  -0.82677
 Alpha  occ. eigenvalues --   -0.82509  -0.82498  -0.82296  -0.82275  -0.78510
 Alpha  occ. eigenvalues --   -0.78387  -0.78285  -0.77669  -0.77469  -0.77334
 Alpha  occ. eigenvalues --   -0.76665  -0.76529  -0.76511  -0.76247  -0.74663
 Alpha  occ. eigenvalues --   -0.72608  -0.72220  -0.72154  -0.72034  -0.71149
 Alpha  occ. eigenvalues --   -0.70966  -0.70269  -0.69731  -0.68939  -0.67991
 Alpha  occ. eigenvalues --   -0.67793  -0.66415  -0.65735  -0.64714  -0.64620
 Alpha  occ. eigenvalues --   -0.64083  -0.63782  -0.63683  -0.63508  -0.62490
 Alpha  occ. eigenvalues --   -0.62145  -0.61321  -0.60991  -0.60627  -0.58723
 Alpha  occ. eigenvalues --   -0.58287  -0.58173  -0.57165  -0.56830  -0.56728
 Alpha  occ. eigenvalues --   -0.56327  -0.55868  -0.55625  -0.54468  -0.54213
 Alpha  occ. eigenvalues --   -0.53095  -0.52377  -0.51968  -0.51811  -0.51382
 Alpha  occ. eigenvalues --   -0.51329  -0.50768  -0.50663  -0.50391  -0.49719
 Alpha  occ. eigenvalues --   -0.48707  -0.48414  -0.48043  -0.47881  -0.47574
 Alpha  occ. eigenvalues --   -0.47085  -0.46961  -0.46703  -0.46515  -0.46496
 Alpha  occ. eigenvalues --   -0.46206  -0.45944  -0.45657  -0.45625  -0.45441
 Alpha  occ. eigenvalues --   -0.45381  -0.44483  -0.44050  -0.43725  -0.43607
 Alpha  occ. eigenvalues --   -0.43546  -0.43453  -0.43388  -0.43099  -0.42918
 Alpha  occ. eigenvalues --   -0.42771  -0.42639  -0.42635  -0.42482  -0.42367
 Alpha  occ. eigenvalues --   -0.42033  -0.41763  -0.41745  -0.40603  -0.40461
 Alpha  occ. eigenvalues --   -0.40089  -0.39807  -0.39612  -0.39331  -0.39234
 Alpha  occ. eigenvalues --   -0.38962  -0.38882  -0.38700  -0.38292  -0.38221
 Alpha  occ. eigenvalues --   -0.38168  -0.38051  -0.37916  -0.37806  -0.37669
 Alpha  occ. eigenvalues --   -0.37555  -0.35041  -0.34954  -0.34942  -0.34859
 Alpha  occ. eigenvalues --   -0.34689  -0.34491  -0.34183  -0.34114  -0.33981
 Alpha  occ. eigenvalues --   -0.33625  -0.33278  -0.33132  -0.32821  -0.32415
 Alpha  occ. eigenvalues --   -0.32088  -0.31928  -0.31873  -0.31756  -0.31732
 Alpha  occ. eigenvalues --   -0.27011  -0.26882  -0.26879  -0.26808  -0.26755
 Alpha  occ. eigenvalues --   -0.26607  -0.25993  -0.25885  -0.25319  -0.24816
 Alpha  occ. eigenvalues --   -0.23351  -0.22674  -0.22670  -0.21986  -0.21684
 Alpha  occ. eigenvalues --   -0.20664  -0.20287
 Alpha virt. eigenvalues --   -0.14252  -0.12216  -0.10869  -0.10125  -0.08834
 Alpha virt. eigenvalues --   -0.07395  -0.05839  -0.05553  -0.05520  -0.05113
 Alpha virt. eigenvalues --   -0.04543  -0.04375  -0.04105  -0.03363  -0.02838

 Mulliken charges:
               1
     1  C   -0.027785
     2  C   -0.021349
     3  C   -0.025956
     4  C   -0.021916
     5  C    0.046222
     6  C   -0.010486
     7  C   -0.018593
     8  C   -0.018435
     9  C    0.040318
    10  C    0.002208
    11  C   -0.003919
    12  C    0.052395
    13  C   -0.028342
    14  C   -0.029468
    15  C   -0.010729
    16  C   -0.023906
    17  C   -0.002472
    18  C    0.056379
    19  C   -0.003966
    20  C    0.056316
    21  C   -0.024895
    22  C   -0.023881
    23  C   -0.000561
    24  C   -0.018436
    25  C   -0.024648
    26  C   -0.003908
    27  C   -0.020947
    28  C   -0.023998
    29  C    0.050529
    30  C   -0.017013
    31  C   -0.034840
    32  C   -0.011822
    33  C   -0.028386
    34  C   -0.024247
    35  C    0.040330
    36  C    0.044121
    37  C    0.046248
    38  C    0.044266
    39  C    0.050540
    40  C   -0.030800
    41  C   -0.032128
    42  C    0.054128
    43  C   -0.034817
    44  C    0.049869
    45  C    0.051095
    46  C   -0.033311
    47  C    0.045688
    48  C    0.045575
    49  C   -0.025990
    50  C   -0.023954
    51  C   -0.011838
    52  C   -0.017010
    53  C   -0.008565
    54  C   -0.025942
    55  C   -0.024214
    56  C   -0.018573
    57  C    0.044169
    58  C   -0.029469
    59  C    0.054172
    60  C   -0.033324
    61  C   -0.021666
    62  C   -0.021880
    63  C   -0.032125
    64  C    0.051046
    65  C   -0.030837
    66  C    0.045643
    67  C    0.049867
    68  C    0.045711
    69  C   -0.021371
    70  C   -0.026025
    71  C   -0.010404
    72  C    0.002132
    73  C   -0.010620
    74  C   -0.008549
    75  C   -0.002556
    76  C   -0.003952
    77  C   -0.027813
    78  C   -0.024946
    79  C   -0.020971
    80  C   -0.021695
    81  C   -0.000560
    82  C   -0.024643
    83  C    0.044057
    84  C    0.052430
 Sum of Mulliken charges =  -0.00000

 Dipole moment (field-independent basis, Debye):
    X=             -0.0003    Y=             -0.1618    Z=             -0.0000  Tot=              0.1618
 Quadrupole moment (field-independent basis, Debye-Ang):
   XX=           -450.3716   YY=           -453.7798   ZZ=           -455.7911
   XY=              0.0004   XZ=              0.4508   YZ=              0.0004

 Normal termination of Gaussian 16 at Wed Apr 26 11:00:05 2023.
