 Gaussian 16, Revision A.03,
 Gaussian 16:  ES64L-G16RevA.03 25-Dec-2016

 ------------------------------------------------
 #P opt b3lyp/6-31G(d, p) empiricaldispersion=GD3
 ------------------------------------------------

 -----
 force
 -----
 Symbolic Z-matrix:
 Charge =  0 Multiplicity = 1

 SCF Done:  E(RB3LYP) =  -4121.40528857     A.U. after   19 cycles
 SCF Done:  E(RB3LYP) =  -4121.41881808     A.U. after   15 cycles
 SCF Done:  E(RB3LYP) =  -4121.41918742     A.U. after   11 cycles
 SCF Done:  E(RB3LYP) =  -4121.41926088     A.U. after   10 cycles
 SCF Done:  E(RB3LYP) =  -4121.41927005     A.U. after    8 cycles
 Optimization completed.
    -- Stationary point found.

                         Input orientation:
 ---------------------------------------------------------------------
 Center     Atomic      Atomic             Coordinates (Angstroms)
 Number     Number       Type             X           Y           Z
 ---------------------------------------------------------------------
      1          6           0       -0.939833   -1.894892    3.610424
      2          6           0       -4.021555   -0.878701    0.270263
      3          6           0        3.741670    0.305434   -2.568854
      4          6           0       -0.561472    0.461013   -3.973079
      5          6           0       -0.904327   -0.490242    3.781180
      6          6           0       -3.449036   -2.108171    0.930190
      7          6           0        3.471324    1.679268   -2.299375
      8          6           0        0.521069   -0.462913   -4.209726
      9          6           0       -1.943689    0.314615    3.133496
     10          6           0       -2.860919   -3.108326    0.206972
     11          6           0        0.355456   -1.787180   -3.899770
     12          6           0        2.273703    2.315836   -2.735605
     13          6           0       -2.935436   -0.357525    2.384963
     14          6           0        1.474354    1.554808   -3.619548
     15          6           0       -2.945977   -1.780172    2.232486
     16          6           0        1.781467    0.203666   -3.952487
     17          6           0       -1.944226   -2.539817    2.828276
     18          6           0        2.861619   -0.492556   -3.343476
     19          6           0       -1.333787   -3.617627    2.074266
     20          6           0        2.675091   -1.904567   -2.978761
     21          6           0        0.067575   -3.638611    2.360904
     22          6           0        3.350653   -2.407179   -1.831775
     23          6           0        0.285667   -2.656083    3.413184
     24          6           0        4.207932   -1.549109   -1.038059
     25          6           0        1.503796   -2.052896    3.556149
     26          6           0        4.406709   -0.242024   -1.394410
     27          6           0        1.583111   -0.665121    3.934097
     28          6           0        4.501624    0.790122   -0.378556
     29          6           0        0.397485    0.118678    4.045796
     30          6           0        4.026452    1.988636   -0.995402
     31          6           0        0.554028    1.496091    3.834209
     32          6           0        3.469803    2.984502   -0.233830
     33          6           0       -0.529319    2.314768    3.300949
     34          6           0        2.325304    3.738365   -0.720724
     35          6           0       -1.715896    1.715393    2.813312
     36          6           0        1.643085    3.346398   -1.898300
     37          6           0       -2.372549    2.317709    1.654044
     38          6           0        0.189147    3.514651   -1.936978
     39          6           0       -3.242683    1.499426    0.824252
     40          6           0       -3.346365    0.638880   -1.540866
     41          6           0       -2.479159    0.998747   -2.630680
     42          6           0       -0.610586    2.641907   -2.792171
     43          6           0       -3.535794    0.227886    1.218312
     44          6           0       -3.496936   -0.658944   -1.143454
     45          6           0       -1.776981    0.022399   -3.371004
     46          6           0        0.026971    1.715325   -3.639220
     47          6           0       -2.814579   -1.722456   -1.885396
     48          6           0       -1.954041   -1.374550   -3.013655
     49          6           0       -2.577819   -2.946425   -1.219672
     50          6           0       -0.905192   -2.266028   -3.367868
     51          6           0       -1.403730   -3.715744   -1.490146
     52          6           0       -0.587323   -3.382019   -2.547361
     53          6           0       -1.777037   -3.882250    0.787054
     54          6           0        1.445207   -2.537151   -3.287856
     55          6           0       -0.827182   -4.188368   -0.237527
     56          6           0        0.854203   -3.498348   -2.414852
     57          6           0        1.038584   -3.853853    1.349566
     58          6           0        2.726243   -3.312916   -0.929129
     59          6           0        2.355016   -3.235181    1.540354
     60          6           0        3.180656   -3.004790    0.422464
     61          6           0        2.578019   -2.366113    2.650884
     62          6           0        4.069886   -1.892008    0.355726
     63          6           0        3.380445   -1.191723    2.543062
     64          6           0        4.092941   -0.883215    1.367557
     65          6           0        2.768554   -0.139810    3.347261
     66          6           0        4.273364    0.521583    0.992749
     67          6           0        2.882101    1.221218    2.992711
     68          6           0        3.674588    1.581558    1.811372
     69          6           0        1.798725    2.056468    3.401183
     70          6           0        3.372477    2.819955    1.191512
     71          6           0        1.494522    3.279869    2.703650
     72          6           0        2.266443    3.649307    1.622825
     73          6           0        0.052792    3.445326    2.669399
     74          6           0        1.632495    4.215167    0.436537
     75          6           0       -0.562080    3.999053    1.543051
     76          6           0        0.256525    4.380511    0.397693
     77          6           0       -1.787667    3.470544    1.069971
     78          6           0       -0.457599    4.060377   -0.799955
     79          6           0       -3.534116    1.852470   -0.626600
     80          6           0       -1.937863    2.295375   -2.391354
     81          6           0       -1.781861    3.624863   -0.392658
     82          6           0       -2.511180    2.804589   -1.188934
     83          6           0        0.569039   -4.146818   -0.009123
     84          6           0        1.433505   -3.837088   -1.159755
     85         17           0       -5.883701   -0.984507    0.259120
     86         17           0       -5.242993    2.568067   -0.794303
 ---------------------------------------------------------------------

 The electronic state is 1-A.
 Alpha  occ. eigenvalues -- -101.54354-101.54307 -10.29697 -10.29499 -10.25021
 Alpha  occ. eigenvalues --  -10.24967 -10.24937 -10.24903 -10.24877 -10.24852
 Alpha  occ. eigenvalues --  -10.24785 -10.24785 -10.24763 -10.24719 -10.24672
 Alpha  occ. eigenvalues --  -10.24571 -10.24545 -10.24381 -10.24335 -10.24327
 Alpha  occ. eigenvalues --  -10.24289 -10.24287 -10.24242 -10.24188 -10.24182
 Alpha  occ. eigenvalues --  -10.24145 -10.24117 -10.24109 -10.24082 -10.24019
 Alpha  occ. eigenvalues --  -10.23994 -10.23940 -10.23828 -10.23789 -10.23773
 Alpha  occ. eigenvalues --  -10.23755 -10.23752 -10.23642 -10.23593 -10.23503
 Alpha  occ. eigenvalues --  -10.23475 -10.23475 -10.23474 -10.23472 -10.23452
 Alpha  occ. eigenvalues --  -10.23445 -10.23403 -10.23402 -10.23389 -10.23384
 Alpha  occ. eigenvalues --  -10.23372 -10.23331 -10.23320 -10.23292 -10.23247
 Alpha  occ. eigenvalues --  -10.23232 -10.23226 -10.23218 -10.23216 -10.23205
 Alpha  occ. eigenvalues --  -10.23198 -10.23164 -10.23149 -10.23117 -10.23110
 Alpha  occ. eigenvalues --  -10.23098 -10.23084 -10.23042 -10.23030 -10.23005
 Alpha  occ. eigenvalues --  -10.22971 -10.22957 -10.22942 -10.22930 -10.22906
 Alpha  occ. eigenvalues --  -10.22859 -10.22845 -10.22816 -10.22775 -10.22738
 Alpha  occ. eigenvalues --  -10.22697 -10.22659 -10.22651 -10.22636 -10.22552
 Alpha  occ. eigenvalues --  -10.22461  -9.45885  -9.45840  -7.22319  -7.22268
 Alpha  occ. eigenvalues --   -7.21295  -7.21281  -7.21251  -7.21239  -0.97206
 Alpha  occ. eigenvalues --   -0.96104  -0.95810  -0.95669  -0.93825  -0.93776
 Alpha  occ. eigenvalues --   -0.93195  -0.92811  -0.92419  -0.90523  -0.90260
 Alpha  occ. eigenvalues --   -0.89881  -0.88855  -0.88384  -0.88241  -0.88104
 Alpha  occ. eigenvalues --   -0.86497  -0.85161  -0.84751  -0.84053  -0.83786
 Alpha  occ. eigenvalues --   -0.83572  -0.83288  -0.83188  -0.83097  -0.81736
 Alpha  occ. eigenvalues --   -0.80963  -0.79078  -0.79038  -0.78809  -0.78326
 Alpha  occ. eigenvalues --   -0.78157  -0.77864  -0.77340  -0.77136  -0.76978
 Alpha  occ. eigenvalues --   -0.76299  -0.75014  -0.73186  -0.72877  -0.72724
 Alpha  occ. eigenvalues --   -0.72532  -0.71786  -0.71434  -0.70925  -0.70312
 Alpha  occ. eigenvalues --   -0.69563  -0.68694  -0.68399  -0.67049  -0.66558
 Alpha  occ. eigenvalues --   -0.65413  -0.65239  -0.64699  -0.64468  -0.64274
 Alpha  occ. eigenvalues --   -0.64185  -0.63252  -0.62851  -0.62092  -0.61735
 Alpha  occ. eigenvalues --   -0.61302  -0.59454  -0.59005  -0.58911  -0.57974
 Alpha  occ. eigenvalues --   -0.57528  -0.57413  -0.57009  -0.56567  -0.56319
 Alpha  occ. eigenvalues --   -0.55152  -0.54801  -0.53876  -0.53204  -0.52765
 Alpha  occ. eigenvalues --   -0.52658  -0.52155  -0.52089  -0.51558  -0.51460
 Alpha  occ. eigenvalues --   -0.51137  -0.50509  -0.49502  -0.49077  -0.49057
 Alpha  occ. eigenvalues --   -0.48731  -0.48308  -0.48021  -0.47741  -0.47635
 Alpha  occ. eigenvalues --   -0.47485  -0.47394  -0.47054  -0.46951  -0.46502
 Alpha  occ. eigenvalues --   -0.46331  -0.46283  -0.46143  -0.45649  -0.45018
 Alpha  occ. eigenvalues --   -0.44796  -0.44744  -0.44366  -0.44235  -0.44138
 Alpha  occ. eigenvalues --   -0.43929  -0.43770  -0.43600  -0.43529  -0.43342
 Alpha  occ. eigenvalues --   -0.43171  -0.43061  -0.42947  -0.42726  -0.42360
 Alpha  occ. eigenvalues --   -0.42049  -0.41264  -0.41179  -0.40975  -0.40827
 Alpha  occ. eigenvalues --   -0.40604  -0.40273  -0.39999  -0.39791  -0.39659
 Alpha  occ. eigenvalues --   -0.39483  -0.39373  -0.38900  -0.38771  -0.38729
 Alpha  occ. eigenvalues --   -0.38648  -0.38478  -0.38344  -0.37506  -0.36739
 Alpha  occ. eigenvalues --   -0.36175  -0.35695  -0.35674  -0.35521  -0.35397
 Alpha  occ. eigenvalues --   -0.35260  -0.34896  -0.34737  -0.34559  -0.34335
 Alpha  occ. eigenvalues --   -0.34014  -0.33580  -0.33170  -0.33062  -0.32923
 Alpha  occ. eigenvalues --   -0.32798  -0.32519  -0.31400  -0.31154  -0.30799
 Alpha  occ. eigenvalues --   -0.30280  -0.29870  -0.29712  -0.27519  -0.27403
 Alpha  occ. eigenvalues --   -0.27339  -0.27274  -0.27216  -0.26894  -0.26422
 Alpha  occ. eigenvalues --   -0.26231  -0.25435  -0.24500  -0.23153  -0.22804
 Alpha  occ. eigenvalues --   -0.22697  -0.22237  -0.21367  -0.20595
 Alpha virt. eigenvalues --   -0.14645  -0.13065  -0.10942  -0.10632  -0.09677
 Alpha virt. eigenvalues --   -0.09141  -0.07322  -0.06076  -0.06043  -0.05644
 Alpha virt. eigenvalues --   -0.05269  -0.04852  -0.04617  -0.04048  -0.03761

 Mulliken charges:
               1
     1  C   -0.025074
     2  C   -0.357116
     3  C   -0.024612
     4  C   -0.019945
     5  C    0.050704
     6  C    0.073084
     7  C   -0.018950
     8  C   -0.018196
     9  C    0.032902
    10  C    0.015335
    11  C   -0.000472
    12  C    0.055388
    13  C    0.002849
    14  C   -0.029636
    15  C    0.026197
    16  C   -0.023838
    17  C   -0.014941
    18  C    0.057803
    19  C   -0.005893
    20  C    0.057455
    21  C   -0.026558
    22  C   -0.023908
    23  C   -0.001908
    24  C   -0.018292
    25  C   -0.020181
    26  C   -0.002478
    27  C   -0.020660
    28  C   -0.022379
    29  C    0.049698
    30  C   -0.016553
    31  C   -0.032911
    32  C   -0.010443
    33  C   -0.028238
    34  C   -0.024704
    35  C    0.035746
    36  C    0.043558
    37  C    0.069636
    38  C    0.043836
    39  C    0.122121
    40  C    0.079402
    41  C   -0.000060
    42  C    0.045676
    43  C    0.077607
    44  C    0.117755
    45  C    0.045176
    46  C   -0.028775
    47  C    0.069198
    48  C    0.041102
    49  C   -0.046514
    50  C   -0.022956
    51  C   -0.005931
    52  C   -0.017052
    53  C   -0.006712
    54  C   -0.025601
    55  C   -0.021912
    56  C   -0.018274
    57  C    0.046217
    58  C   -0.028489
    59  C    0.053453
    60  C   -0.031611
    61  C   -0.022106
    62  C   -0.020881
    63  C   -0.031733
    64  C    0.052164
    65  C   -0.029655
    66  C    0.046109
    67  C    0.051534
    68  C    0.044900
    69  C   -0.021360
    70  C   -0.024616
    71  C   -0.010059
    72  C    0.003784
    73  C   -0.012177
    74  C   -0.007712
    75  C    0.001606
    76  C   -0.003566
    77  C   -0.047048
    78  C   -0.020957
    79  C   -0.361246
    80  C    0.011833
    81  C    0.003972
    82  C    0.070832
    83  C    0.044118
    84  C    0.053171
    85  Cl  -0.022533
    86  Cl  -0.018501
 Sum of Mulliken charges =  -0.00000

 Dipole moment (field-independent basis, Debye):
    X=              3.4478    Y=             -0.5542    Z=              0.0481  Tot=              3.4924
 Quadrupole moment (field-independent basis, Debye-Ang):
   XX=           -501.6936   YY=           -476.8896   ZZ=           -476.1720
   XY=              5.0435   XZ=             -1.9926   YZ=              0.0417

 Normal termination of Gaussian 16 at Mon Jun 27 02:22:21 2022.
