 Gaussian 16, Revision A.03,
 Gaussian 16:  ES64L-G16RevA.03 25-Dec-2016

 ------------------------------------------------
 #P opt b3lyp/6-31G(d, p) empiricaldispersion=GD3
 ------------------------------------------------

 -----
 force
 -----
 Symbolic Z-matrix:
 Charge =  0 Multiplicity = 1

 SCF Done:  E(RB3LYP) =  -4121.37680013     A.U. after   26 cycles
 SCF Done:  E(RB3LYP) =  -4121.39013716     A.U. after   19 cycles
 SCF Done:  E(RB3LYP) =  -4121.39049115     A.U. after   14 cycles
 SCF Done:  E(RB3LYP) =  -4121.39056528     A.U. after   14 cycles
 SCF Done:  E(RB3LYP) =  -4121.39057315     A.U. after   12 cycles
 Optimization completed.
    -- Stationary point found.

                         Input orientation:
 ---------------------------------------------------------------------
 Center     Atomic      Atomic             Coordinates (Angstroms)
 Number     Number       Type             X           Y           Z
 ---------------------------------------------------------------------
      1          6           0        3.200860   -2.028049   -2.433798
      2          6           0        3.609098   -1.781766    2.025669
      3          6           0       -3.959948    1.230032    0.277026
      4          6           0       -1.143991    0.207496    3.830422
      5          6           0        3.527319   -0.647361   -2.355392
      6          6           0        3.526679   -2.890150    1.117768
      7          6           0       -3.090738    2.483703    0.430986
      8          6           0       -2.287200   -0.419054    3.244144
      9          6           0        4.131392   -0.137052   -1.122220
     10          6           0        2.463773   -3.770931    1.205105
     11          6           0       -2.229545   -1.751923    2.865603
     12          6           0       -2.281849    2.775899    1.553143
     13          6           0        4.363525   -1.058197   -0.068799
     14          6           0       -2.295838    1.820950    2.602381
     15          6           0        4.011341   -2.449933   -0.176851
     16          6           0       -2.979770    0.525617    2.434275
     17          6           0        3.423633   -2.924242   -1.333271
     18          6           0       -3.586544    0.129637    1.244207
     19          6           0        2.301714   -3.846159   -1.250654
     20          6           0       -3.496700   -1.238767    0.830737
     21          6           0        1.364713   -3.495170   -2.286011
     22          6           0       -3.704008   -1.647110   -0.612311
     23          6           0        1.991329   -2.466570   -3.089024
     24          6           0       -3.554286   -0.472344   -1.557592
     25          6           0        1.218640   -1.572191   -3.800605
     26          6           0       -3.685129    0.832332   -1.167588
     27          6           0        1.622792   -0.205075   -3.900320
     28          6           0       -2.934464    1.846774   -1.818658
     29          6           0        2.757277    0.263941   -3.198037
     30          6           0       -2.691393    2.893735   -0.851791
     31          6           0        2.763423    1.645508   -2.891963
     32          6           0       -1.623953    3.760575   -1.024294
     33          6           0        3.458878    2.150173   -1.741378
     34          6           0       -0.871983    4.206442    0.122727
     35          6           0        4.011914    1.274882   -0.772750
     36          6           0       -1.095177    3.627060    1.396295
     37          6           0        3.956560    1.686660    0.634062
     38          6           0        0.061152    3.429305    2.275791
     39          6           0        3.963002    0.662411    1.675126
     40          6           0        2.476698   -0.226654    3.471475
     41          6           0        1.249444    0.293447    3.961892
     42          6           0        0.019478    2.367446    3.285891
     43          6           0        4.201926   -0.678828    1.308854
     44          6           0        2.605336   -1.568452    3.010776
     45          6           0        0.071737   -0.501164    3.963362
     46          6           0       -1.181030    1.609743    3.436528
     47          6           0        1.448504   -2.450484    3.072932
     48          6           0        0.162283   -1.906469    3.534339
     49          6           0        1.434192   -3.573402    2.196806
     50          6           0       -1.023688   -2.512089    3.067417
     51          6           0        0.208979   -4.043778    1.612355
     52          6           0       -1.001718   -3.528952    2.038971
     53          6           0        1.831422   -4.251927   -0.016957
     54          6           0       -2.838990   -2.158964    1.640338
     55          6           0        0.414605   -4.337773    0.215722
     56          6           0       -2.048707   -3.293666    1.108419
     57          6           0       -0.036383   -3.484709   -2.058235
     58          6           0       -2.609497   -2.595813   -1.121187
     59          6           0       -0.832164   -2.533214   -2.833733
     60          6           0       -2.107818   -2.123830   -2.322377
     61          6           0       -0.209573   -1.625964   -3.706645
     62          6           0       -2.655780   -0.796775   -2.598347
     63          6           0       -0.692831   -0.261112   -3.880006
     64          6           0       -1.894074    0.190624   -3.268283
     65          6           0        0.419610    0.597133   -4.013378
     66          6           0       -1.995292    1.575369   -2.847902
     67          6           0        0.381784    1.954213   -3.573782
     68          6           0       -0.853360    2.478800   -3.016989
     69          6           0        1.632492    2.498905   -3.169516
     70          6           0       -0.753103    3.609379   -2.151297
     71          6           0        1.693584    3.599445   -2.253176
     72          6           0        0.524011    4.152905   -1.760140
     73          6           0        2.833958    3.396803   -1.378554
     74          6           0        0.445187    4.528630   -0.354742
     75          6           0        2.761624    3.770435   -0.052355
     76          6           0        1.533948    4.343564    0.475857
     77          6           0        3.341471    2.924336    0.955912
     78          6           0        1.339197    3.829667    1.804974
     79          6           0        3.217388    0.855810    2.865080
     80          6           0        1.206952    1.715863    3.681804
     81          6           0        2.527090    3.069353    2.140396
     82          6           0        2.458537    2.050002    3.064577
     83          6           0       -0.536126   -3.929973   -0.757097
     84          6           0       -1.833936   -3.446293   -0.276111
     85         17           0       -5.761061    1.657116    0.515917
     86         17           0       -5.375597   -2.445117   -0.803924
 ---------------------------------------------------------------------

 The electronic state is 1-A.
 Alpha  occ. eigenvalues -- -101.54740-101.54459 -10.29720 -10.29581 -10.25208
 Alpha  occ. eigenvalues --  -10.25134 -10.24961 -10.24949 -10.24880 -10.24862
 Alpha  occ. eigenvalues --  -10.24835 -10.24813 -10.24807 -10.24733 -10.24718
 Alpha  occ. eigenvalues --  -10.24700 -10.24659 -10.24635 -10.24592 -10.24473
 Alpha  occ. eigenvalues --  -10.24450 -10.24288 -10.24264 -10.24215 -10.24215
 Alpha  occ. eigenvalues --  -10.24193 -10.24141 -10.24103 -10.24069 -10.23932
 Alpha  occ. eigenvalues --  -10.23913 -10.23840 -10.23808 -10.23800 -10.23774
 Alpha  occ. eigenvalues --  -10.23735 -10.23682 -10.23658 -10.23656 -10.23633
 Alpha  occ. eigenvalues --  -10.23631 -10.23628 -10.23613 -10.23602 -10.23589
 Alpha  occ. eigenvalues --  -10.23582 -10.23534 -10.23493 -10.23474 -10.23451
 Alpha  occ. eigenvalues --  -10.23427 -10.23427 -10.23414 -10.23411 -10.23397
 Alpha  occ. eigenvalues --  -10.23387 -10.23382 -10.23381 -10.23275 -10.23257
 Alpha  occ. eigenvalues --  -10.23236 -10.23229 -10.23227 -10.23201 -10.23171
 Alpha  occ. eigenvalues --  -10.23127 -10.23095 -10.23085 -10.23082 -10.23070
 Alpha  occ. eigenvalues --  -10.23027 -10.23020 -10.22975 -10.22882 -10.22880
 Alpha  occ. eigenvalues --  -10.22724 -10.22712 -10.22672 -10.22544 -10.22513
 Alpha  occ. eigenvalues --  -10.22459 -10.22346 -10.22268 -10.22137 -10.21902
 Alpha  occ. eigenvalues --  -10.21800  -9.46265  -9.45986  -7.22705  -7.22421
 Alpha  occ. eigenvalues --   -7.21666  -7.21662  -7.21392  -7.21385  -0.97212
 Alpha  occ. eigenvalues --   -0.96136  -0.96016  -0.95517  -0.93860  -0.93667
 Alpha  occ. eigenvalues --   -0.93371  -0.92824  -0.92365  -0.90730  -0.90167
 Alpha  occ. eigenvalues --   -0.89819  -0.88966  -0.88565  -0.88329  -0.88003
 Alpha  occ. eigenvalues --   -0.86456  -0.85201  -0.84670  -0.84119  -0.84056
 Alpha  occ. eigenvalues --   -0.83559  -0.83454  -0.83192  -0.82946  -0.81754
 Alpha  occ. eigenvalues --   -0.80969  -0.79250  -0.78994  -0.78763  -0.78234
 Alpha  occ. eigenvalues --   -0.78007  -0.77774  -0.77296  -0.77211  -0.77090
 Alpha  occ. eigenvalues --   -0.76363  -0.74944  -0.73374  -0.72955  -0.72838
 Alpha  occ. eigenvalues --   -0.72534  -0.71509  -0.71220  -0.70974  -0.70241
 Alpha  occ. eigenvalues --   -0.69486  -0.68704  -0.68465  -0.67126  -0.66378
 Alpha  occ. eigenvalues --   -0.65546  -0.65335  -0.64901  -0.64714  -0.64163
 Alpha  occ. eigenvalues --   -0.64049  -0.63028  -0.62874  -0.61874  -0.61696
 Alpha  occ. eigenvalues --   -0.61271  -0.59634  -0.59268  -0.58882  -0.58044
 Alpha  occ. eigenvalues --   -0.57562  -0.57484  -0.57036  -0.56773  -0.56227
 Alpha  occ. eigenvalues --   -0.55154  -0.54732  -0.53699  -0.53366  -0.52965
 Alpha  occ. eigenvalues --   -0.52609  -0.52464  -0.52112  -0.51528  -0.51272
 Alpha  occ. eigenvalues --   -0.51058  -0.50571  -0.49573  -0.49363  -0.49051
 Alpha  occ. eigenvalues --   -0.48850  -0.48342  -0.48038  -0.47783  -0.47638
 Alpha  occ. eigenvalues --   -0.47356  -0.47250  -0.47052  -0.46749  -0.46523
 Alpha  occ. eigenvalues --   -0.46352  -0.46277  -0.46130  -0.45747  -0.45197
 Alpha  occ. eigenvalues --   -0.44866  -0.44718  -0.44395  -0.44242  -0.44112
 Alpha  occ. eigenvalues --   -0.43873  -0.43723  -0.43600  -0.43451  -0.43321
 Alpha  occ. eigenvalues --   -0.43209  -0.42881  -0.42847  -0.42818  -0.42545
 Alpha  occ. eigenvalues --   -0.41996  -0.41722  -0.41295  -0.40960  -0.40880
 Alpha  occ. eigenvalues --   -0.40376  -0.40180  -0.40089  -0.39866  -0.39558
 Alpha  occ. eigenvalues --   -0.39413  -0.39254  -0.39149  -0.38990  -0.38894
 Alpha  occ. eigenvalues --   -0.38762  -0.38596  -0.38259  -0.37319  -0.36473
 Alpha  occ. eigenvalues --   -0.36308  -0.35839  -0.35729  -0.35637  -0.35143
 Alpha  occ. eigenvalues --   -0.35035  -0.34921  -0.34767  -0.34673  -0.34497
 Alpha  occ. eigenvalues --   -0.34097  -0.33646  -0.33199  -0.33109  -0.32936
 Alpha  occ. eigenvalues --   -0.32674  -0.32610  -0.31333  -0.31102  -0.30704
 Alpha  occ. eigenvalues --   -0.30566  -0.30252  -0.29362  -0.27673  -0.27514
 Alpha  occ. eigenvalues --   -0.27380  -0.27235  -0.26994  -0.26866  -0.26338
 Alpha  occ. eigenvalues --   -0.26088  -0.25773  -0.24233  -0.23462  -0.23335
 Alpha  occ. eigenvalues --   -0.23130  -0.21594  -0.21058  -0.18718
 Alpha virt. eigenvalues --   -0.15905  -0.13079  -0.12326  -0.10306  -0.09430
 Alpha virt. eigenvalues --   -0.08638  -0.07346  -0.06628  -0.05948  -0.05633
 Alpha virt. eigenvalues --   -0.05352  -0.04821  -0.04667  -0.04114  -0.03763

 Mulliken charges:
               1
     1  C   -0.024071
     2  C   -0.024499
     3  C   -0.363405
     4  C   -0.029176
     5  C    0.043206
     6  C   -0.007441
     7  C    0.046633
     8  C   -0.015701
     9  C    0.039540
    10  C    0.002133
    11  C   -0.007838
    12  C    0.070284
    13  C   -0.026841
    14  C   -0.049077
    15  C   -0.007619
    16  C    0.006078
    17  C   -0.001372
    18  C    0.133865
    19  C   -0.005290
    20  C    0.135183
    21  C   -0.022531
    22  C   -0.366667
    23  C    0.004394
    24  C    0.087477
    25  C   -0.027515
    26  C    0.093558
    27  C   -0.019390
    28  C    0.002590
    29  C    0.053381
    30  C    0.022711
    31  C   -0.029907
    32  C   -0.016831
    33  C   -0.028263
    34  C   -0.023327
    35  C    0.038371
    36  C    0.038983
    37  C    0.047019
    38  C    0.045408
    39  C    0.049800
    40  C   -0.030440
    41  C   -0.035672
    42  C    0.058950
    43  C   -0.032859
    44  C    0.051367
    45  C    0.056033
    46  C   -0.026229
    47  C    0.039893
    48  C    0.051063
    49  C   -0.025448
    50  C   -0.028018
    51  C   -0.009313
    52  C   -0.011708
    53  C   -0.002798
    54  C    0.007510
    55  C   -0.018919
    56  C   -0.034355
    57  C    0.043937
    58  C    0.044396
    59  C    0.057482
    60  C    0.012780
    61  C   -0.026918
    62  C   -0.000998
    63  C   -0.028975
    64  C    0.046279
    65  C   -0.029653
    66  C    0.037081
    67  C    0.048349
    68  C    0.045722
    69  C   -0.023415
    70  C   -0.023516
    71  C   -0.005985
    72  C    0.001323
    73  C   -0.008335
    74  C   -0.007543
    75  C   -0.000069
    76  C   -0.001740
    77  C   -0.023964
    78  C   -0.023351
    79  C   -0.019213
    80  C   -0.028791
    81  C    0.000468
    82  C   -0.025568
    83  C    0.038407
    84  C    0.069596
    85  Cl  -0.023205
    86  Cl  -0.017489
 Sum of Mulliken charges =  -0.00000

 Dipole moment (field-independent basis, Debye):
    X=              3.9387    Y=              0.0473    Z=             -0.7353  Tot=              4.0071
 Quadrupole moment (field-independent basis, Debye-Ang):
   XX=           -500.9721   YY=           -475.5123   ZZ=           -478.4440
   XY=             -0.7542   XZ=             -0.7810   YZ=             -0.3978

 Normal termination of Gaussian 16 at Thu Jun 30 07:11:50 2022.
