 Gaussian 16, Revision A.03,
 Gaussian 16:  ES64L-G16RevA.03 25-Dec-2016

 ------------------------------------------------
 #P opt b3lyp/6-31G(d, p) empiricaldispersion=GD3
 ------------------------------------------------

 -----
 force
 -----
 Symbolic Z-matrix:
 Charge =  0 Multiplicity = 1

 SCF Done:  E(RB3LYP) =  -4121.39049497     A.U. after   20 cycles
 SCF Done:  E(RB3LYP) =  -4121.40371603     A.U. after   15 cycles
 SCF Done:  E(RB3LYP) =  -4121.40411268     A.U. after   12 cycles
 SCF Done:  E(RB3LYP) =  -4121.40420267     A.U. after   12 cycles
 SCF Done:  E(RB3LYP) =  -4121.40421245     A.U. after   10 cycles
 Optimization completed.
    -- Stationary point found.

                         Input orientation:
 ---------------------------------------------------------------------
 Center     Atomic      Atomic             Coordinates (Angstroms)
 Number     Number       Type             X           Y           Z
 ---------------------------------------------------------------------
      1          6           0        1.268564   -0.914239    3.833605
      2          6           0        3.662736   -1.877940   -0.027750
      3          6           0       -3.000547    2.762244   -1.928836
      4          6           0        0.619591    0.882208   -3.899041
      5          6           0        0.437667   -1.975411    3.390536
      6          6           0        3.813419   -0.977558    1.170857
      7          6           0       -3.580705    1.517390   -2.314973
      8          6           0        0.281808    2.232103   -3.544394
      9          6           0        0.933077   -2.848836    2.327091
     10          6           0        3.997539    0.367578    1.049792
     11          6           0        1.123557    2.943543   -2.718797
     12          6           0       -2.898480    0.592122   -3.155167
     13          6           0        2.221791   -2.582522    1.792788
     14          6           0       -1.704045    1.071515   -3.740023
     15          6           0        3.037530   -1.498464    2.262415
     16          6           0       -1.154612    2.344476   -3.408447
     17          6           0        2.554420   -0.668667    3.264225
     18          6           0       -1.732189    3.174341   -2.406585
     19          6           0        2.743126    0.760135    3.137218
     20          6           0       -0.838185    3.913029   -1.503257
     21          6           0        1.564034    1.421524    3.612150
     22          6           0       -1.266313    4.158884   -0.165830
     23          6           0        0.706745    0.386255    4.163949
     24          6           0       -2.551339    3.678789    0.299292
     25          6           0       -0.650073    0.562824    4.224909
     26          6           0       -3.393930    3.011287   -0.548416
     27          6           0       -1.528201   -0.545349    3.974820
     28          6           0       -4.178509    1.889777   -0.067743
     29          6           0       -1.001832   -1.804743    3.559962
     30          6           0       -4.375609    1.039755   -1.199434
     31          6           0       -1.869712   -2.610809    2.804934
     32          6           0       -4.577247   -0.306054   -1.026796
     33          6           0       -1.365603   -3.556288    1.827013
     34          6           0       -3.989931   -1.262965   -1.949866
     35          6           0        0.010140   -3.586508    1.479106
     36          6           0       -3.061525   -0.853905   -2.938684
     37          6           0        0.360718   -3.873074    0.089867
     38          6           0       -1.959482   -1.761825   -3.265651
     39          6           0        1.639839   -3.399833   -0.441438
     40          6           0        2.451657   -1.830858   -2.194073
     41          6           0        1.717135   -1.141309   -3.233847
     42          6           0       -0.704152   -1.215018   -3.800831
     43          6           0        2.548568   -2.830080    0.431637
     44          6           0        3.260569   -1.104295   -1.279130
     45          6           0        1.780149    0.260387   -3.351471
     46          6           0       -0.608808    0.165701   -4.059264
     47          6           0        3.392790    0.273969   -1.404739
     48          6           0        2.650236    1.001418   -2.444004
     49          6           0        4.074317    1.072207   -0.289263
     50          6           0        2.349202    2.361887   -2.234278
     51          6           0        3.334980    2.362280    0.012065
     52          6           0        2.604769    2.986863   -0.948000
     53          6           0        3.416550    1.252714    2.030875
     54          6           0        0.561402    3.806054   -1.686112
     55          6           0        2.929032    2.433031    1.382181
     56          6           0        1.463129    3.789592   -0.580549
     57          6           0        1.014178    2.547123    2.949473
     58          6           0       -0.374547    4.077137    0.937245
     59          6           0       -0.435426    2.749018    3.054685
     60          6           0       -1.096692    3.521656    2.077381
     61          6           0       -1.242462    1.769102    3.704299
     62          6           0       -2.435529    3.248306    1.673298
     63          6           0       -2.540236    1.420131    3.223864
     64          6           0       -3.143881    2.103076    2.147352
     65          6           0       -2.719613   -0.013320    3.396854
     66          6           0       -4.019962    1.362370    1.237782
     67          6           0       -3.523947   -0.768598    2.516656
     68          6           0       -4.223170   -0.077652    1.427966
     69          6           0       -3.153837   -2.138693    2.366297
     70          6           0       -4.585447   -0.859144    0.300870
     71          6           0       -3.497213   -2.874490    1.181071
     72          6           0       -4.198977   -2.247484    0.171224
     73          6           0       -2.397540   -3.769296    0.864040
     74          6           0       -3.841571   -2.488565   -1.221461
     75          6           0       -2.056548   -4.007602   -0.461410
     76          6           0       -2.798937   -3.343953   -1.532469
     77          6           0       -0.689551   -4.093671   -0.838920
     78          6           0       -1.884603   -2.998356   -2.575760
     79          6           0        1.730924   -2.987949   -1.824666
     80          6           0        0.527529   -1.874960   -3.516873
     81          6           0       -0.600162   -3.570748   -2.197829
     82          6           0        0.567587   -3.041553   -2.672463
     83          6           0        1.732067    3.084023    1.792863
     84          6           0        1.007543    3.828796    0.770657
     85         17           0        5.226437   -2.827698   -0.380144
     86         17           0        5.841892    1.414510   -0.790429
 ---------------------------------------------------------------------

 The electronic state is 1-A.
 Alpha  occ. eigenvalues -- -101.54471-101.54153 -10.29652 -10.29616 -10.25248
 Alpha  occ. eigenvalues --  -10.25144 -10.25126 -10.25077 -10.25035 -10.25024
 Alpha  occ. eigenvalues --  -10.25008 -10.24937 -10.24870 -10.24785 -10.24745
 Alpha  occ. eigenvalues --  -10.24665 -10.24647 -10.24313 -10.24293 -10.24286
 Alpha  occ. eigenvalues --  -10.24271 -10.24238 -10.24217 -10.24210 -10.24205
 Alpha  occ. eigenvalues --  -10.24198 -10.24186 -10.24153 -10.24152 -10.24093
 Alpha  occ. eigenvalues --  -10.24085 -10.24049 -10.23890 -10.23885 -10.23842
 Alpha  occ. eigenvalues --  -10.23815 -10.23811 -10.23809 -10.23805 -10.23771
 Alpha  occ. eigenvalues --  -10.23748 -10.23718 -10.23716 -10.23687 -10.23647
 Alpha  occ. eigenvalues --  -10.23595 -10.23527 -10.23474 -10.23454 -10.23426
 Alpha  occ. eigenvalues --  -10.23398 -10.23390 -10.23378 -10.23371 -10.23352
 Alpha  occ. eigenvalues --  -10.23329 -10.23272 -10.23253 -10.23249 -10.23243
 Alpha  occ. eigenvalues --  -10.23210 -10.23200 -10.23150 -10.23059 -10.23051
 Alpha  occ. eigenvalues --  -10.23037 -10.23026 -10.23005 -10.22955 -10.22928
 Alpha  occ. eigenvalues --  -10.22894 -10.22865 -10.22811 -10.22810 -10.22806
 Alpha  occ. eigenvalues --  -10.22785 -10.22756 -10.22721 -10.22704 -10.22574
 Alpha  occ. eigenvalues --  -10.22506 -10.22484 -10.22443 -10.22414 -10.22365
 Alpha  occ. eigenvalues --  -10.22338  -9.46000  -9.45698  -7.22431  -7.22114
 Alpha  occ. eigenvalues --   -7.21406  -7.21403  -7.21116  -7.21102  -0.97271
 Alpha  occ. eigenvalues --   -0.96339  -0.95783  -0.95543  -0.93853  -0.93821
 Alpha  occ. eigenvalues --   -0.93123  -0.92933  -0.92486  -0.90743  -0.90150
 Alpha  occ. eigenvalues --   -0.89954  -0.88835  -0.88402  -0.88285  -0.88050
 Alpha  occ. eigenvalues --   -0.86638  -0.84981  -0.84781  -0.84157  -0.83948
 Alpha  occ. eigenvalues --   -0.83780  -0.83275  -0.83121  -0.83092  -0.81667
 Alpha  occ. eigenvalues --   -0.81063  -0.79195  -0.79149  -0.78811  -0.78346
 Alpha  occ. eigenvalues --   -0.78098  -0.77928  -0.77371  -0.77107  -0.76644
 Alpha  occ. eigenvalues --   -0.76427  -0.75162  -0.73356  -0.73008  -0.72859
 Alpha  occ. eigenvalues --   -0.72217  -0.71716  -0.71509  -0.70959  -0.70360
 Alpha  occ. eigenvalues --   -0.69671  -0.68535  -0.68423  -0.67103  -0.66575
 Alpha  occ. eigenvalues --   -0.65529  -0.65420  -0.64853  -0.64582  -0.64374
 Alpha  occ. eigenvalues --   -0.64005  -0.63200  -0.62825  -0.62008  -0.61563
 Alpha  occ. eigenvalues --   -0.61316  -0.59531  -0.59162  -0.58998  -0.58080
 Alpha  occ. eigenvalues --   -0.57617  -0.57489  -0.57132  -0.56659  -0.56358
 Alpha  occ. eigenvalues --   -0.55213  -0.54784  -0.53801  -0.53188  -0.52696
 Alpha  occ. eigenvalues --   -0.52652  -0.52272  -0.52040  -0.51611  -0.51478
 Alpha  occ. eigenvalues --   -0.51182  -0.50498  -0.49631  -0.49310  -0.48973
 Alpha  occ. eigenvalues --   -0.48853  -0.48485  -0.48141  -0.47882  -0.47764
 Alpha  occ. eigenvalues --   -0.47477  -0.47364  -0.47053  -0.46777  -0.46424
 Alpha  occ. eigenvalues --   -0.46335  -0.46215  -0.46067  -0.45437  -0.45101
 Alpha  occ. eigenvalues --   -0.44963  -0.44896  -0.44366  -0.44307  -0.44147
 Alpha  occ. eigenvalues --   -0.43933  -0.43740  -0.43657  -0.43462  -0.43420
 Alpha  occ. eigenvalues --   -0.43339  -0.43200  -0.42986  -0.42591  -0.42483
 Alpha  occ. eigenvalues --   -0.42109  -0.41515  -0.41182  -0.40881  -0.40803
 Alpha  occ. eigenvalues --   -0.40651  -0.40315  -0.40039  -0.39975  -0.39462
 Alpha  occ. eigenvalues --   -0.39296  -0.39217  -0.39018  -0.38966  -0.38726
 Alpha  occ. eigenvalues --   -0.38645  -0.38604  -0.38357  -0.37428  -0.36617
 Alpha  occ. eigenvalues --   -0.36374  -0.36006  -0.35667  -0.35635  -0.35225
 Alpha  occ. eigenvalues --   -0.35143  -0.35052  -0.34831  -0.34645  -0.34276
 Alpha  occ. eigenvalues --   -0.33910  -0.33663  -0.33434  -0.33254  -0.32687
 Alpha  occ. eigenvalues --   -0.32489  -0.32389  -0.31472  -0.31001  -0.30961
 Alpha  occ. eigenvalues --   -0.30433  -0.30067  -0.29871  -0.27563  -0.27491
 Alpha  occ. eigenvalues --   -0.27453  -0.27293  -0.27171  -0.26932  -0.26537
 Alpha  occ. eigenvalues --   -0.25753  -0.24967  -0.24609  -0.23796  -0.23289
 Alpha  occ. eigenvalues --   -0.22617  -0.21880  -0.21183  -0.19835
 Alpha virt. eigenvalues --   -0.15500  -0.13484  -0.11386  -0.10522  -0.10161
 Alpha virt. eigenvalues --   -0.08448  -0.07039  -0.06241  -0.06039  -0.05736
 Alpha virt. eigenvalues --   -0.05453  -0.04950  -0.04791  -0.04011  -0.03789

 Mulliken charges:
               1
     1  C   -0.022451
     2  C   -0.356410
     3  C   -0.026080
     4  C   -0.023582
     5  C    0.049591
     6  C    0.089894
     7  C   -0.018864
     8  C   -0.018050
     9  C    0.028188
    10  C    0.095181
    11  C    0.002199
    12  C    0.052632
    13  C    0.013439
    14  C   -0.028801
    15  C    0.017912
    16  C   -0.022710
    17  C   -0.014933
    18  C    0.055914
    19  C   -0.016390
    20  C    0.057002
    21  C   -0.022079
    22  C   -0.022870
    23  C   -0.000313
    24  C   -0.018160
    25  C   -0.023941
    26  C   -0.002679
    27  C   -0.021724
    28  C   -0.021169
    29  C    0.050500
    30  C   -0.015578
    31  C   -0.031324
    32  C   -0.011343
    33  C   -0.023999
    34  C   -0.022097
    35  C    0.039205
    36  C    0.045735
    37  C    0.042891
    38  C    0.043460
    39  C    0.067960
    40  C    0.009829
    41  C   -0.033760
    42  C    0.057044
    43  C    0.041611
    44  C    0.128599
    45  C    0.052490
    46  C   -0.032860
    47  C    0.098190
    48  C    0.078831
    49  C   -0.351750
    50  C   -0.043982
    51  C    0.071869
    52  C    0.001376
    53  C    0.019550
    54  C   -0.024525
    55  C    0.007188
    56  C   -0.014078
    57  C    0.047091
    58  C   -0.030014
    59  C    0.054567
    60  C   -0.028844
    61  C   -0.022840
    62  C   -0.021084
    63  C   -0.031088
    64  C    0.051727
    65  C   -0.028453
    66  C    0.046641
    67  C    0.051408
    68  C    0.045296
    69  C   -0.022806
    70  C   -0.024157
    71  C   -0.010468
    72  C    0.005022
    73  C   -0.012719
    74  C   -0.008186
    75  C    0.001760
    76  C   -0.001438
    77  C   -0.025958
    78  C   -0.021553
    79  C   -0.035878
    80  C   -0.024674
    81  C    0.005799
    82  C   -0.021415
    83  C    0.035483
    84  C    0.050264
    85  Cl  -0.022549
    86  Cl  -0.032712
 Sum of Mulliken charges =  -0.00000

 Dipole moment (field-independent basis, Debye):
    X=             -4.0234    Y=              0.0585    Z=              1.0645  Tot=              4.1622
 Quadrupole moment (field-independent basis, Debye-Ang):
   XX=           -500.4261   YY=           -478.0065   ZZ=           -477.3706
   XY=              4.5000   XZ=              6.7912   YZ=              0.3134

 Normal termination of Gaussian 16 at Thu Jun 30 09:40:51 2022.
