 Gaussian 16, Revision A.03,
 Gaussian 16:  ES64L-G16RevA.03 25-Dec-2016

 ------------------------------------------------
 #P opt b3lyp/6-31G(d, p) empiricaldispersion=GD3
 ------------------------------------------------

 -----
 force
 -----
 Symbolic Z-matrix:
 Charge =  0 Multiplicity = 1

 SCF Done:  E(RB3LYP) =  -4121.40781369     A.U. after   19 cycles
 SCF Done:  E(RB3LYP) =  -4121.42111871     A.U. after   15 cycles
 SCF Done:  E(RB3LYP) =  -4121.42145885     A.U. after   13 cycles
 SCF Done:  E(RB3LYP) =  -4121.42151963     A.U. after   10 cycles
 SCF Done:  E(RB3LYP) =  -4121.42152708     A.U. after    8 cycles
 Optimization completed.
    -- Stationary point found.

                         Input orientation:
 ---------------------------------------------------------------------
 Center     Atomic      Atomic             Coordinates (Angstroms)
 Number     Number       Type             X           Y           Z
 ---------------------------------------------------------------------
      1          6           0        2.187536    1.032669   -3.698901
      2          6           0        4.215157    1.784889    0.238961
      3          6           0       -2.347437   -2.628850    1.847828
      4          6           0        1.235560   -0.865027    3.991246
      5          6           0        1.358970    2.098758   -3.261425
      6          6           0        4.581114    1.018338   -0.922599
      7          6           0       -2.911771   -1.371701    2.227960
      8          6           0        0.874638   -2.209383    3.605343
      9          6           0        1.835982    2.954210   -2.166902
     10          6           0        4.740203   -0.348104   -0.811936
     11          6           0        1.720003   -2.928720    2.800242
     12          6           0       -2.239332   -0.486001    3.122488
     13          6           0        3.105264    2.682550   -1.622973
     14          6           0       -1.084005   -1.007218    3.746678
     15          6           0        3.911685    1.587698   -2.075555
     16          6           0       -0.557132   -2.287119    3.420472
     17          6           0        3.449024    0.760469   -3.087707
     18          6           0       -1.113684   -3.084737    2.380579
     19          6           0        3.606518   -0.682658   -2.970771
     20          6           0       -0.214015   -3.837203    1.508015
     21          6           0        2.431621   -1.313130   -3.497059
     22          6           0       -0.601547   -4.038028    0.154817
     23          6           0        1.619651   -0.254817   -4.070002
     24          6           0       -1.862670   -3.537791   -0.342629
     25          6           0        0.262128   -0.405799   -4.168998
     26          6           0       -2.723427   -2.886624    0.486028
     27          6           0       -0.602286    0.715230   -3.926742
     28          6           0       -3.698961   -1.834508   -0.019735
     29          6           0       -0.077007    1.947974   -3.472121
     30          6           0       -3.714212   -0.879310    1.150842
     31          6           0       -0.967174    2.753926   -2.724669
     32          6           0       -3.877442    0.453215    0.993865
     33          6           0       -0.473600    3.680743   -1.709316
     34          6           0       -3.249839    1.374844    1.901734
     35          6           0        0.879963    3.690712   -1.323090
     36          6           0       -2.365243    0.950456    2.927833
     37          6           0        1.189799    3.965442    0.086942
     38          6           0       -1.268940    1.838494    3.316970
     39          6           0        2.431284    3.451864    0.655491
     40          6           0        3.187859    1.853201    2.406285
     41          6           0        2.400876    1.149590    3.412842
     42          6           0       -0.044210    1.256681    3.882450
     43          6           0        3.369283    2.854088   -0.198993
     44          6           0        4.020945    1.157150    1.507450
     45          6           0        2.432563   -0.258698    3.508100
     46          6           0        0.018732   -0.129546    4.119265
     47          6           0        4.132709   -0.301576    1.623133
     48          6           0        3.323258   -1.011156    2.620609
     49          6           0        4.537662   -1.006951    0.462819
     50          6           0        2.977189   -2.358855    2.359692
     51          6           0        4.023224   -2.316224    0.165993
     52          6           0        3.259097   -2.971164    1.096969
     53          6           0        4.234790   -1.222088   -1.860092
     54          6           0        1.182984   -3.773687    1.742832
     55          6           0        3.704949   -2.406286   -1.250573
     56          6           0        2.122723   -3.762594    0.671086
     57          6           0        1.834434   -2.436771   -2.865580
     58          6           0        0.334482   -3.958285   -0.915599
     59          6           0        0.385435   -2.601639   -3.018714
     60          6           0       -0.337541   -3.375743   -2.070876
     61          6           0       -0.368338   -1.605539   -3.683199
     62          6           0       -1.675398   -3.083682   -1.712630
     63          6           0       -1.678234   -1.230744   -3.227826
     64          6           0       -2.329275   -1.904388   -2.180183
     65          6           0       -1.824615    0.191824   -3.384456
     66          6           0       -3.211227   -1.143253   -1.300732
     67          6           0       -2.635024    0.936598   -2.511424
     68          6           0       -3.369754    0.229883   -1.464879
     69          6           0       -2.254321    2.301781   -2.337601
     70          6           0       -4.057588    1.072712   -0.379597
     71          6           0       -2.639650    3.031405   -1.140519
     72          6           0       -3.402903    2.430411   -0.176924
     73          6           0       -1.536691    3.893860   -0.775824
     74          6           0       -3.061078    2.611189    1.206530
     75          6           0       -1.243856    4.128644    0.560395
     76          6           0       -2.024725    3.458611    1.583848
     77          6           0        0.115226    4.190135    0.985249
     78          6           0       -1.154710    3.085484    2.656206
     79          6           0        2.471088    3.020375    2.016153
     80          6           0        1.210580    1.893748    3.650874
     81          6           0        0.148542    3.651488    2.339249
     82          6           0        1.287526    3.078297    2.829608
     83          6           0        2.502686   -3.008374   -1.692320
     84          6           0        1.714491   -3.753164   -0.695488
     85         17           0       -5.362432   -2.598346   -0.326440
     86         17           0       -5.850712    1.288053   -0.822318
 ---------------------------------------------------------------------

 The electronic state is 1-A.
 Alpha  occ. eigenvalues -- -101.54656-101.54588 -10.29871 -10.29723 -10.25284
 Alpha  occ. eigenvalues --  -10.25168 -10.25110 -10.24929 -10.24896 -10.24885
 Alpha  occ. eigenvalues --  -10.24871 -10.24835 -10.24811 -10.24776 -10.24770
 Alpha  occ. eigenvalues --  -10.24682 -10.24390 -10.24384 -10.24295 -10.24294
 Alpha  occ. eigenvalues --  -10.24267 -10.24261 -10.24229 -10.24225 -10.24208
 Alpha  occ. eigenvalues --  -10.24198 -10.24122 -10.24096 -10.23989 -10.23944
 Alpha  occ. eigenvalues --  -10.23875 -10.23846 -10.23842 -10.23834 -10.23823
 Alpha  occ. eigenvalues --  -10.23657 -10.23656 -10.23591 -10.23584 -10.23528
 Alpha  occ. eigenvalues --  -10.23508 -10.23508 -10.23475 -10.23449 -10.23443
 Alpha  occ. eigenvalues --  -10.23400 -10.23352 -10.23344 -10.23330 -10.23311
 Alpha  occ. eigenvalues --  -10.23296 -10.23273 -10.23248 -10.23223 -10.23170
 Alpha  occ. eigenvalues --  -10.23160 -10.23123 -10.23121 -10.23117 -10.23112
 Alpha  occ. eigenvalues --  -10.23100 -10.23083 -10.23058 -10.23047 -10.23033
 Alpha  occ. eigenvalues --  -10.23012 -10.23004 -10.22957 -10.22944 -10.22919
 Alpha  occ. eigenvalues --  -10.22892 -10.22880 -10.22842 -10.22832 -10.22815
 Alpha  occ. eigenvalues --  -10.22809 -10.22750 -10.22724 -10.22717 -10.22692
 Alpha  occ. eigenvalues --  -10.22667 -10.22662 -10.22658 -10.22620 -10.22514
 Alpha  occ. eigenvalues --  -10.22230  -9.46192  -9.46128  -7.22628  -7.22558
 Alpha  occ. eigenvalues --   -7.21599  -7.21587  -7.21536  -7.21525  -0.97217
 Alpha  occ. eigenvalues --   -0.96172  -0.95824  -0.95523  -0.93911  -0.93747
 Alpha  occ. eigenvalues --   -0.93107  -0.92680  -0.92438  -0.90785  -0.90150
 Alpha  occ. eigenvalues --   -0.89872  -0.88913  -0.88352  -0.88116  -0.88004
 Alpha  occ. eigenvalues --   -0.86512  -0.85213  -0.84614  -0.84269  -0.83960
 Alpha  occ. eigenvalues --   -0.83721  -0.83238  -0.83113  -0.83007  -0.81608
 Alpha  occ. eigenvalues --   -0.81275  -0.79125  -0.79044  -0.78737  -0.78308
 Alpha  occ. eigenvalues --   -0.78044  -0.77856  -0.77250  -0.77032  -0.76658
 Alpha  occ. eigenvalues --   -0.76478  -0.75108  -0.73309  -0.72948  -0.72814
 Alpha  occ. eigenvalues --   -0.72102  -0.71658  -0.71536  -0.70876  -0.70318
 Alpha  occ. eigenvalues --   -0.69565  -0.68553  -0.68400  -0.67016  -0.66480
 Alpha  occ. eigenvalues --   -0.65479  -0.65301  -0.64688  -0.64608  -0.64301
 Alpha  occ. eigenvalues --   -0.63906  -0.63219  -0.62810  -0.61925  -0.61608
 Alpha  occ. eigenvalues --   -0.61349  -0.59587  -0.58993  -0.58784  -0.57877
 Alpha  occ. eigenvalues --   -0.57572  -0.57546  -0.57027  -0.56667  -0.56342
 Alpha  occ. eigenvalues --   -0.55137  -0.54729  -0.53791  -0.53208  -0.52787
 Alpha  occ. eigenvalues --   -0.52514  -0.52191  -0.52031  -0.51507  -0.51448
 Alpha  occ. eigenvalues --   -0.51129  -0.50452  -0.49533  -0.49208  -0.48994
 Alpha  occ. eigenvalues --   -0.48823  -0.48389  -0.48038  -0.47862  -0.47702
 Alpha  occ. eigenvalues --   -0.47548  -0.47222  -0.47031  -0.46689  -0.46372
 Alpha  occ. eigenvalues --   -0.46286  -0.46156  -0.46072  -0.45350  -0.45157
 Alpha  occ. eigenvalues --   -0.45032  -0.44846  -0.44390  -0.44256  -0.44091
 Alpha  occ. eigenvalues --   -0.43882  -0.43742  -0.43608  -0.43412  -0.43361
 Alpha  occ. eigenvalues --   -0.43290  -0.43050  -0.42758  -0.42635  -0.42569
 Alpha  occ. eigenvalues --   -0.42021  -0.41432  -0.41248  -0.40834  -0.40763
 Alpha  occ. eigenvalues --   -0.40673  -0.40363  -0.40086  -0.39807  -0.39610
 Alpha  occ. eigenvalues --   -0.39329  -0.39133  -0.38932  -0.38781  -0.38606
 Alpha  occ. eigenvalues --   -0.38554  -0.38436  -0.38323  -0.37479  -0.36461
 Alpha  occ. eigenvalues --   -0.36393  -0.36040  -0.35640  -0.35528  -0.35240
 Alpha  occ. eigenvalues --   -0.35144  -0.34954  -0.34836  -0.34627  -0.34313
 Alpha  occ. eigenvalues --   -0.33776  -0.33671  -0.33384  -0.33233  -0.32648
 Alpha  occ. eigenvalues --   -0.32475  -0.32277  -0.31369  -0.31158  -0.31138
 Alpha  occ. eigenvalues --   -0.30545  -0.30111  -0.30018  -0.27515  -0.27416
 Alpha  occ. eigenvalues --   -0.27396  -0.27240  -0.27118  -0.26913  -0.26391
 Alpha  occ. eigenvalues --   -0.25758  -0.24959  -0.24346  -0.23564  -0.23194
 Alpha  occ. eigenvalues --   -0.22549  -0.22313  -0.21338  -0.20544
 Alpha virt. eigenvalues --   -0.14555  -0.12381  -0.11647  -0.10941  -0.09906
 Alpha virt. eigenvalues --   -0.08436  -0.07069  -0.06247  -0.05918  -0.05727
 Alpha virt. eigenvalues --   -0.05511  -0.04952  -0.04691  -0.04002  -0.03493

 Mulliken charges:
               1
     1  C   -0.027187
     2  C   -0.019334
     3  C    0.006060
     4  C   -0.021776
     5  C    0.048333
     6  C   -0.009687
     7  C    0.005096
     8  C   -0.019551
     9  C    0.040598
    10  C    0.002773
    11  C   -0.000391
    12  C    0.046725
    13  C   -0.029579
    14  C   -0.027998
    15  C   -0.008935
    16  C   -0.020781
    17  C   -0.002167
    18  C    0.047274
    19  C   -0.003720
    20  C    0.057283
    21  C   -0.024342
    22  C   -0.023506
    23  C   -0.003134
    24  C   -0.003581
    25  C   -0.021767
    26  C    0.076298
    27  C   -0.020443
    28  C   -0.354485
    29  C    0.050260
    30  C    0.091177
    31  C   -0.026830
    32  C    0.090173
    33  C   -0.028548
    34  C    0.000013
    35  C    0.042714
    36  C    0.035692
    37  C    0.047147
    38  C    0.049073
    39  C    0.049441
    40  C   -0.030505
    41  C   -0.030491
    42  C    0.055078
    43  C   -0.033320
    44  C    0.050101
    45  C    0.053188
    46  C   -0.031853
    47  C    0.046172
    48  C    0.045299
    49  C   -0.024337
    50  C   -0.023493
    51  C   -0.010714
    52  C   -0.017400
    53  C   -0.007235
    54  C   -0.025690
    55  C   -0.024970
    56  C   -0.018313
    57  C    0.045085
    58  C   -0.030280
    59  C    0.053772
    60  C   -0.024883
    61  C   -0.022331
    62  C   -0.038960
    63  C   -0.032479
    64  C    0.086748
    65  C   -0.032087
    66  C    0.105123
    67  C    0.084150
    68  C    0.103486
    69  C   -0.038848
    70  C   -0.351835
    71  C    0.008998
    72  C    0.076809
    73  C   -0.010184
    74  C    0.024400
    75  C   -0.002747
    76  C   -0.013617
    77  C   -0.028899
    78  C   -0.023625
    79  C   -0.020409
    80  C   -0.021625
    81  C   -0.001201
    82  C   -0.020846
    83  C    0.044324
    84  C    0.054245
    85  Cl  -0.014062
    86  Cl  -0.018125
 Sum of Mulliken charges =  -0.00000

 Dipole moment (field-independent basis, Debye):
    X=              3.4051    Y=              0.6485    Z=              0.7982  Tot=              3.5570
 Quadrupole moment (field-independent basis, Debye-Ang):
   XX=           -498.8882   YY=           -478.3952   ZZ=           -476.9356
   XY=             -4.1347   XZ=             -5.2551   YZ=             -0.4056

 Normal termination of Gaussian 16 at Mon Jun 27 14:12:56 2022.
