 Gaussian 16, Revision A.03,
 Gaussian 16:  ES64L-G16RevA.03 25-Dec-2016

 ------------------------------------------------
 #P opt b3lyp/6-31G(d, p) empiricaldispersion=GD3
 ------------------------------------------------

 -----
 force
 -----
 Symbolic Z-matrix:
 Charge =  0 Multiplicity = 1

 SCF Done:  E(RB3LYP) =  -4121.40994018     A.U. after   19 cycles
 SCF Done:  E(RB3LYP) =  -4121.42315570     A.U. after   14 cycles
 SCF Done:  E(RB3LYP) =  -4121.42350185     A.U. after   13 cycles
 SCF Done:  E(RB3LYP) =  -4121.42356705     A.U. after   10 cycles
 SCF Done:  E(RB3LYP) =  -4121.42357460     A.U. after    8 cycles
 Optimization completed.
    -- Stationary point found.

                         Input orientation:
 ---------------------------------------------------------------------
 Center     Atomic      Atomic             Coordinates (Angstroms)
 Number     Number       Type             X           Y           Z
 ---------------------------------------------------------------------
      1          6           0        4.424781    0.383508   -1.292608
      2          6           0        3.308861   -1.228538    2.747894
      3          6           0       -3.590492   -0.533181   -1.425653
      4          6           0       -2.093724   -1.975763    2.547377
      5          6           0        4.002874    1.609783   -0.714325
      6          6           0        4.044803   -1.780251    1.642071
      7          6           0       -4.020762    0.737339   -0.690687
      8          6           0       -2.575287   -2.668580    1.398176
      9          6           0        3.878597    1.689212    0.744641
     10          6           0        3.563578   -2.901133    0.995684
     11          6           0       -1.763297   -3.564886    0.771800
     12          6           0       -3.591953    0.727325    0.770780
     13          6           0        4.204632    0.542742    1.498149
     14          6           0       -3.465143   -0.493408    1.371001
     15          6           0        4.614839   -0.684039    0.882775
     16          6           0       -3.610306   -1.842808    0.662288
     17          6           0        4.704789   -0.766867   -0.498826
     18          6           0       -3.324695   -1.739820   -0.824857
     19          6           0        4.192534   -1.946208   -1.187073
     20          6           0       -2.419976   -2.683150   -1.473640
     21          6           0        3.577732   -1.529615   -2.408632
     22          6           0       -1.817851   -2.315404   -2.706295
     23          6           0        3.836182   -0.102124   -2.532090
     24          6           0       -2.074642   -1.027003   -3.277095
     25          6           0        2.993814    0.692819   -3.257919
     26          6           0       -2.927474   -0.155990   -2.642119
     27          6           0        2.697421    2.025582   -2.805018
     28          6           0       -2.645613    1.263094   -2.622872
     29          6           0        3.186025    2.486952   -1.548647
     30          6           0       -3.284459    1.798461   -1.482325
     31          6           0        2.425688    3.493724   -0.930623
     32          6           0       -2.770047    2.910491   -0.878707
     33          6           0        2.386705    3.633872    0.519089
     34          6           0       -2.723259    3.033386    0.581634
     35          6           0        2.978929    2.672734    1.363273
     36          6           0       -2.992994    1.908572    1.397166
     37          6           0        2.311115    2.374006    2.635367
     38          6           0       -2.227958    1.757030    2.631820
     39          6           0        2.514619    1.065192    3.257011
     40          6           0        1.205041   -0.958326    3.870617
     41          6           0       -0.233189   -1.161244    3.829536
     42          6           0       -2.046528    0.423832    3.191821
     43          6           0        3.468602    0.195533    2.704716
     44          6           0        2.088141   -1.823148    3.189174
     45          6           0       -0.792195   -2.221611    3.086141
     46          6           0       -2.672395   -0.668580    2.555941
     47          6           0        1.542215   -2.981344    2.474570
     48          6           0        0.089633   -3.171493    2.419584
     49          6           0        2.327894   -3.519993    1.424277
     50          6           0       -0.454270   -3.864429    1.311452
     51          6           0        1.717654   -4.068854    0.244616
     52          6           0        0.357807   -4.237611    0.195708
     53          6           0        3.636717   -2.986784   -0.457714
     54          6           0       -1.685235   -3.610471   -0.690785
     55          6           0        2.452307   -3.630118   -0.935457
     56          6           0       -0.363858   -3.989294   -1.037355
     57          6           0        2.361599   -2.096008   -2.871524
     58          6           0       -0.461811   -2.650669   -3.026000
     59          6           0        1.489889   -1.241839   -3.687400
     60          6           0        0.114967   -1.545911   -3.776137
     61          6           0        1.826272    0.128342   -3.885644
     62          6           0       -0.875288   -0.525620   -3.901783
     63          6           0        0.834559    1.155774   -3.907568
     64          6           0       -0.543204    0.859129   -3.836815
     65          6           0        1.376357    2.331652   -3.247437
     66          6           0       -1.433511    1.793087   -3.146152
     67          6           0        0.548158    3.234760   -2.548112
     68          6           0       -0.896527    2.992163   -2.518849
     69          6           0        1.169338    3.925013   -1.463927
     70          6           0       -1.628624    3.565157   -1.445464
     71          6           0        0.390292    4.447020   -0.371110
     72          6           0       -0.977741    4.274521   -0.365235
     73          6           0        1.157701    4.289447    0.851512
     74          6           0       -1.665620    3.940824    0.877242
     75          6           0        0.513843    3.986602    2.040758
     76          6           0       -0.933756    3.798584    2.052830
     77          6           0        1.104978    3.052610    2.942357
     78          6           0       -1.244194    2.735594    2.947209
     79          6           0        1.453107    0.443314    3.973776
     80          6           0       -0.870283    0.110213    3.930201
     81          6           0        0.002438    2.355698    3.593758
     82          6           0        0.173573    1.092016    4.084793
     83          6           0        1.773934   -3.196565   -2.101021
     84          6           0        0.325105   -3.437727   -2.168626
     85         17           0       -5.308918   -2.545152    0.945411
     86         17           0       -5.862544    0.988575   -0.811455
 ---------------------------------------------------------------------

 The electronic state is 1-A.
 Alpha  occ. eigenvalues -- -101.54687-101.54392 -10.29770 -10.29696 -10.25092
 Alpha  occ. eigenvalues --  -10.24964 -10.24928 -10.24852 -10.24849 -10.24801
 Alpha  occ. eigenvalues --  -10.24766 -10.24743 -10.24736 -10.24729 -10.24699
 Alpha  occ. eigenvalues --  -10.24698 -10.24614 -10.24605 -10.24426 -10.24298
 Alpha  occ. eigenvalues --  -10.24259 -10.24254 -10.24244 -10.24177 -10.24159
 Alpha  occ. eigenvalues --  -10.24051 -10.24019 -10.23995 -10.23994 -10.23945
 Alpha  occ. eigenvalues --  -10.23909 -10.23877 -10.23871 -10.23860 -10.23787
 Alpha  occ. eigenvalues --  -10.23762 -10.23674 -10.23659 -10.23622 -10.23600
 Alpha  occ. eigenvalues --  -10.23584 -10.23551 -10.23488 -10.23485 -10.23478
 Alpha  occ. eigenvalues --  -10.23474 -10.23409 -10.23406 -10.23404 -10.23393
 Alpha  occ. eigenvalues --  -10.23384 -10.23370 -10.23356 -10.23355 -10.23303
 Alpha  occ. eigenvalues --  -10.23268 -10.23257 -10.23238 -10.23235 -10.23193
 Alpha  occ. eigenvalues --  -10.23183 -10.23175 -10.23162 -10.23139 -10.23105
 Alpha  occ. eigenvalues --  -10.23081 -10.23070 -10.23027 -10.23021 -10.23013
 Alpha  occ. eigenvalues --  -10.22996 -10.22942 -10.22942 -10.22863 -10.22858
 Alpha  occ. eigenvalues --  -10.22852 -10.22682 -10.22663 -10.22636 -10.22634
 Alpha  occ. eigenvalues --  -10.22603 -10.22548 -10.22522 -10.22518 -10.22428
 Alpha  occ. eigenvalues --  -10.22201  -9.46217  -9.45927  -7.22654  -7.22354
 Alpha  occ. eigenvalues --   -7.21622  -7.21613  -7.21339  -7.21327  -0.97204
 Alpha  occ. eigenvalues --   -0.96089  -0.95933  -0.95595  -0.93829  -0.93681
 Alpha  occ. eigenvalues --   -0.93395  -0.92719  -0.92371  -0.90567  -0.90268
 Alpha  occ. eigenvalues --   -0.89832  -0.88925  -0.88558  -0.88131  -0.88059
 Alpha  occ. eigenvalues --   -0.86506  -0.84790  -0.84626  -0.84449  -0.84144
 Alpha  occ. eigenvalues --   -0.83505  -0.83338  -0.83107  -0.82954  -0.81750
 Alpha  occ. eigenvalues --   -0.81186  -0.79133  -0.78939  -0.78644  -0.78317
 Alpha  occ. eigenvalues --   -0.78081  -0.77919  -0.77347  -0.77028  -0.76937
 Alpha  occ. eigenvalues --   -0.76515  -0.75025  -0.73067  -0.72895  -0.72770
 Alpha  occ. eigenvalues --   -0.72545  -0.71714  -0.71505  -0.70907  -0.70329
 Alpha  occ. eigenvalues --   -0.69520  -0.68653  -0.68406  -0.67133  -0.66368
 Alpha  occ. eigenvalues --   -0.65421  -0.65376  -0.64640  -0.64498  -0.64381
 Alpha  occ. eigenvalues --   -0.64088  -0.63148  -0.62914  -0.61944  -0.61740
 Alpha  occ. eigenvalues --   -0.61460  -0.59479  -0.59023  -0.58827  -0.57840
 Alpha  occ. eigenvalues --   -0.57547  -0.57401  -0.57074  -0.56553  -0.56395
 Alpha  occ. eigenvalues --   -0.55133  -0.54862  -0.53827  -0.53205  -0.52850
 Alpha  occ. eigenvalues --   -0.52486  -0.52278  -0.52057  -0.51593  -0.51298
 Alpha  occ. eigenvalues --   -0.51150  -0.50538  -0.49607  -0.49231  -0.48892
 Alpha  occ. eigenvalues --   -0.48735  -0.48588  -0.48084  -0.47774  -0.47589
 Alpha  occ. eigenvalues --   -0.47454  -0.47249  -0.47096  -0.46689  -0.46368
 Alpha  occ. eigenvalues --   -0.46338  -0.46229  -0.46095  -0.45569  -0.45210
 Alpha  occ. eigenvalues --   -0.45065  -0.44621  -0.44361  -0.44258  -0.44109
 Alpha  occ. eigenvalues --   -0.43958  -0.43889  -0.43684  -0.43375  -0.43268
 Alpha  occ. eigenvalues --   -0.43221  -0.43060  -0.42760  -0.42633  -0.42359
 Alpha  occ. eigenvalues --   -0.42098  -0.41744  -0.41171  -0.40832  -0.40748
 Alpha  occ. eigenvalues --   -0.40698  -0.40400  -0.40018  -0.39672  -0.39579
 Alpha  occ. eigenvalues --   -0.39384  -0.39254  -0.39169  -0.38894  -0.38720
 Alpha  occ. eigenvalues --   -0.38603  -0.38516  -0.38238  -0.37271  -0.36795
 Alpha  occ. eigenvalues --   -0.36153  -0.35711  -0.35619  -0.35580  -0.35441
 Alpha  occ. eigenvalues --   -0.35130  -0.34895  -0.34789  -0.34459  -0.34374
 Alpha  occ. eigenvalues --   -0.33894  -0.33756  -0.33404  -0.33013  -0.32835
 Alpha  occ. eigenvalues --   -0.32583  -0.32381  -0.31505  -0.31199  -0.30961
 Alpha  occ. eigenvalues --   -0.30481  -0.30077  -0.29969  -0.27480  -0.27335
 Alpha  occ. eigenvalues --   -0.27302  -0.27254  -0.27177  -0.26612  -0.26394
 Alpha  occ. eigenvalues --   -0.25983  -0.25438  -0.24525  -0.23433  -0.23172
 Alpha  occ. eigenvalues --   -0.22501  -0.22274  -0.21117  -0.20878
 Alpha virt. eigenvalues --   -0.14361  -0.13286  -0.10619  -0.10343  -0.10077
 Alpha virt. eigenvalues --   -0.09013  -0.07614  -0.06287  -0.05872  -0.05486
 Alpha virt. eigenvalues --   -0.05446  -0.04722  -0.04446  -0.04164  -0.03686

 Mulliken charges:
               1
     1  C   -0.026154
     2  C   -0.021608
     3  C    0.077963
     4  C    0.015075
     5  C    0.046023
     6  C   -0.009577
     7  C   -0.360156
     8  C    0.075493
     9  C    0.040407
    10  C    0.002935
    11  C    0.001398
    12  C    0.120262
    13  C   -0.027667
    14  C    0.076294
    15  C   -0.009454
    16  C   -0.363371
    17  C   -0.002165
    18  C    0.125474
    19  C   -0.002741
    20  C    0.084460
    21  C   -0.023458
    22  C   -0.028284
    23  C   -0.000031
    24  C   -0.027209
    25  C   -0.024243
    26  C    0.027168
    27  C   -0.019858
    28  C    0.008747
    29  C    0.050610
    30  C    0.073644
    31  C   -0.033165
    32  C    0.001721
    33  C   -0.027926
    34  C   -0.042430
    35  C    0.040912
    36  C    0.070842
    37  C    0.047108
    38  C    0.039791
    39  C    0.052041
    40  C   -0.031156
    41  C   -0.027373
    42  C    0.047478
    43  C   -0.033819
    44  C    0.052271
    45  C    0.042072
    46  C    0.001246
    47  C    0.044681
    48  C    0.045894
    49  C   -0.026061
    50  C   -0.022609
    51  C   -0.010560
    52  C   -0.016673
    53  C   -0.008183
    54  C   -0.044504
    55  C   -0.023245
    56  C   -0.013595
    57  C    0.043326
    58  C   -0.032367
    59  C    0.055004
    60  C   -0.033001
    61  C   -0.021908
    62  C   -0.021433
    63  C   -0.034273
    64  C    0.055974
    65  C   -0.029091
    66  C    0.036839
    67  C    0.048951
    68  C    0.042796
    69  C   -0.020950
    70  C   -0.022063
    71  C   -0.008265
    72  C    0.002136
    73  C   -0.009692
    74  C   -0.002607
    75  C   -0.001626
    76  C   -0.002255
    77  C   -0.026878
    78  C   -0.021675
    79  C   -0.020496
    80  C   -0.018938
    81  C    0.002675
    82  C   -0.024309
    83  C    0.045457
    84  C    0.052795
    85  Cl  -0.015003
    86  Cl  -0.023855
 Sum of Mulliken charges =  -0.00000

 Dipole moment (field-independent basis, Debye):
    X=              3.5509    Y=              0.6706    Z=              0.4532  Tot=              3.6420
 Quadrupole moment (field-independent basis, Debye-Ang):
   XX=           -500.0329   YY=           -476.9995   ZZ=           -477.5592
   XY=             -4.2409   XZ=             -0.2848   YZ=              1.6745

 Normal termination of Gaussian 16 at Mon Jun 27 03:28:40 2022.
