 Gaussian 16, Revision A.03,
 Gaussian 16:  ES64L-G16RevA.03 25-Dec-2016

 ------------------------------------------------
 #P opt b3lyp/6-31G(d, p) empiricaldispersion=GD3
 ------------------------------------------------

 -----
 force
 -----
 Symbolic Z-matrix:
 Charge =  0 Multiplicity = 1

 SCF Done:  E(RB3LYP) =  -4121.40879920     A.U. after   20 cycles
 SCF Done:  E(RB3LYP) =  -4121.42201970     A.U. after   15 cycles
 SCF Done:  E(RB3LYP) =  -4121.42238816     A.U. after   13 cycles
 SCF Done:  E(RB3LYP) =  -4121.42245942     A.U. after   10 cycles
 SCF Done:  E(RB3LYP) =  -4121.42246767     A.U. after    9 cycles
 Optimization completed.
    -- Stationary point found.

                         Input orientation:
 ---------------------------------------------------------------------
 Center     Atomic      Atomic             Coordinates (Angstroms)
 Number     Number       Type             X           Y           Z
 ---------------------------------------------------------------------
      1          6           0       -3.675764   -1.001104   -2.467071
      2          6           0        0.550954   -2.059835   -3.525833
      3          6           0        0.715958    0.743051    4.056976
      4          6           0        3.754256   -1.101127    1.008066
      5          6           0       -3.232184    0.310186   -2.776611
      6          6           0       -0.633401   -2.852852   -3.334584
      7          6           0        1.166430    1.952819    3.451332
      8          6           0        2.927970   -1.562260    2.186111
      9          6           0       -1.990714    0.465002   -3.542052
     10          6           0       -0.671283   -3.779128   -2.311664
     11          6           0        2.167639   -2.687865    2.128859
     12          6           0        2.215713    1.970442    2.491029
     13          6           0       -1.315704   -0.706056   -3.948935
     14          6           0        2.907973    0.746722    2.322669
     15          6           0       -1.786871   -2.016660   -3.612742
     16          6           0        2.509847   -0.450951    2.986617
     17          6           0       -2.942857   -2.159712   -2.861122
     18          6           0        1.334554   -0.505269    3.789682
     19          6           0       -2.982798   -3.130439   -1.772335
     20          6           0        0.510725   -1.710360    3.725032
     21          6           0       -3.729366   -2.568050   -0.689107
     22          6           0       -0.898532   -1.582791    3.876018
     23          6           0       -4.265664   -1.304547   -1.170639
     24          6           0       -1.502401   -0.284709    4.093379
     25          6           0       -4.567342   -0.299922   -0.294592
     26          6           0       -0.725465    0.841539    4.199768
     27          6           0       -4.318040    1.069796   -0.655898
     28          6           0       -1.172561    2.097357    3.625619
     29          6           0       -3.654102    1.383368   -1.877964
     30          6           0        0.015792    2.817955    3.282522
     31          6           0       -2.949733    2.596820   -1.895567
     32          6           0        0.000001    3.739184    2.267918
     33          6           0       -1.777134    2.781527   -2.734388
     34          6           0        1.130657    3.867211    1.360984
     35          6           0       -1.207534    1.702507   -3.441881
     36          6           0        2.185593    2.914719    1.380111
     37          6           0        0.251690    1.664349   -3.569388
     38          6           0        2.815294    2.545087    0.115674
     39          6           0        0.913238    0.383919   -3.746677
     40          6           0        2.529950   -1.091825   -2.564036
     41          6           0        3.341423   -0.858551   -1.403432
     42          6           0        3.475320    1.244873   -0.001982
     43          6           0        0.136659   -0.764208   -3.970629
     44          6           0        1.683549   -2.217087   -2.671435
     45          6           0        3.270046   -1.680295   -0.313404
     46          6           0        3.545660    0.414648    1.080300
     47          6           0        1.639859   -3.155639   -1.561006
     48          6           0        2.420972   -2.866945   -0.360228
     49          6           0        0.471927   -3.960614   -1.440670
     50          6           0        1.968824   -3.402328    0.868998
     51          6           0       -0.041806   -4.316921   -0.156997
     52          6           0        0.698444   -4.033383    0.972292
     53          6           0       -1.876939   -3.922132   -1.507593
     54          6           0        0.946681   -2.783660    2.910389
     55          6           0       -1.488067   -4.164655   -0.149698
     56          6           0        0.026292   -3.589400    2.177138
     57          6           0       -3.326351   -2.724589    0.662166
     58          6           0       -1.810253   -2.338566    3.085834
     59          6           0       -3.695206   -1.656141    1.601671
     60          6           0       -2.965604   -1.501377    2.795529
     61          6           0       -4.326224   -0.473273    1.114681
     62          6           0       -2.759471   -0.219494    3.395008
     63          6           0       -4.030694    0.817835    1.645755
     64          6           0       -3.181006    0.986209    2.758121
     65          6           0       -4.034036    1.775451    0.549732
     66          6           0       -2.341291    2.185673    2.834202
     67          6           0       -3.206575    2.917252    0.564826
     68          6           0       -2.360251    3.165412    1.738131
     69          6           0       -2.801001    3.401756   -0.715347
     70          6           0       -1.219784    3.982568    1.545313
     71          6           0       -1.601379    4.175229   -0.870118
     72          6           0       -0.826825    4.464946    0.235455
     73          6           0       -0.976366    3.801436   -2.127400
     74          6           0        0.623394    4.398516    0.142039
     75          6           0        0.406091    3.749475   -2.226629
     76          6           0        1.233429    4.047712   -1.062998
     77          6           0        1.017365    2.693840   -2.964396
     78          6           0        2.354668    3.173240   -1.068161
     79          6           0        2.191530    0.163871   -3.150962
     80          6           0        3.751139    0.616782   -1.359778
     81          6           0        2.291046    2.416088   -2.325025
     82          6           0        2.867551    1.192304   -2.437955
     83          6           0       -2.156132   -3.559559    0.943419
     84          6           0       -1.372588   -3.319065    2.165964
     85         17           0        5.546639   -1.530826    1.279014
     86         17           0        5.546724    0.819532   -1.807157
 ---------------------------------------------------------------------

 The electronic state is 1-A.
 Alpha  occ. eigenvalues -- -101.54559-101.54508 -10.29778 -10.29690 -10.25099
 Alpha  occ. eigenvalues --  -10.24959 -10.24955 -10.24913 -10.24847 -10.24827
 Alpha  occ. eigenvalues --  -10.24814 -10.24787 -10.24783 -10.24726 -10.24698
 Alpha  occ. eigenvalues --  -10.24625 -10.24590 -10.24571 -10.24486 -10.24444
 Alpha  occ. eigenvalues --  -10.24389 -10.24316 -10.24279 -10.24227 -10.24184
 Alpha  occ. eigenvalues --  -10.24179 -10.24083 -10.24009 -10.24007 -10.23940
 Alpha  occ. eigenvalues --  -10.23911 -10.23909 -10.23897 -10.23870 -10.23812
 Alpha  occ. eigenvalues --  -10.23742 -10.23708 -10.23692 -10.23529 -10.23512
 Alpha  occ. eigenvalues --  -10.23509 -10.23476 -10.23454 -10.23439 -10.23429
 Alpha  occ. eigenvalues --  -10.23422 -10.23417 -10.23412 -10.23399 -10.23368
 Alpha  occ. eigenvalues --  -10.23362 -10.23347 -10.23343 -10.23341 -10.23340
 Alpha  occ. eigenvalues --  -10.23314 -10.23283 -10.23280 -10.23257 -10.23232
 Alpha  occ. eigenvalues --  -10.23217 -10.23212 -10.23207 -10.23138 -10.23077
 Alpha  occ. eigenvalues --  -10.23073 -10.23008 -10.23000 -10.22983 -10.22983
 Alpha  occ. eigenvalues --  -10.22876 -10.22840 -10.22804 -10.22779 -10.22756
 Alpha  occ. eigenvalues --  -10.22739 -10.22717 -10.22702 -10.22700 -10.22692
 Alpha  occ. eigenvalues --  -10.22670 -10.22668 -10.22618 -10.22529 -10.22426
 Alpha  occ. eigenvalues --  -10.22116  -9.46088  -9.46039  -7.22522  -7.22471
 Alpha  occ. eigenvalues --   -7.21497  -7.21485  -7.21449  -7.21436  -0.97236
 Alpha  occ. eigenvalues --   -0.96053  -0.95838  -0.95750  -0.93818  -0.93649
 Alpha  occ. eigenvalues --   -0.93423  -0.92720  -0.92401  -0.90384  -0.90245
 Alpha  occ. eigenvalues --   -0.90002  -0.88975  -0.88427  -0.88252  -0.88123
 Alpha  occ. eigenvalues --   -0.86069  -0.85510  -0.85258  -0.83912  -0.83519
 Alpha  occ. eigenvalues --   -0.83412  -0.83271  -0.83228  -0.82958  -0.81585
 Alpha  occ. eigenvalues --   -0.81507  -0.79155  -0.79019  -0.78785  -0.78278
 Alpha  occ. eigenvalues --   -0.78077  -0.77874  -0.77275  -0.77206  -0.76923
 Alpha  occ. eigenvalues --   -0.76379  -0.74989  -0.73180  -0.72857  -0.72763
 Alpha  occ. eigenvalues --   -0.72658  -0.71826  -0.71294  -0.70886  -0.70322
 Alpha  occ. eigenvalues --   -0.69603  -0.68504  -0.68483  -0.67043  -0.66522
 Alpha  occ. eigenvalues --   -0.65313  -0.65260  -0.64779  -0.64593  -0.64378
 Alpha  occ. eigenvalues --   -0.64144  -0.63265  -0.62859  -0.61963  -0.61736
 Alpha  occ. eigenvalues --   -0.61240  -0.59548  -0.58990  -0.58854  -0.57911
 Alpha  occ. eigenvalues --   -0.57523  -0.57416  -0.57051  -0.56544  -0.56320
 Alpha  occ. eigenvalues --   -0.55320  -0.54779  -0.53859  -0.53115  -0.52778
 Alpha  occ. eigenvalues --   -0.52545  -0.52312  -0.52206  -0.51649  -0.51334
 Alpha  occ. eigenvalues --   -0.51073  -0.50463  -0.49380  -0.49136  -0.49010
 Alpha  occ. eigenvalues --   -0.48671  -0.48432  -0.48074  -0.47908  -0.47758
 Alpha  occ. eigenvalues --   -0.47414  -0.47253  -0.47093  -0.46965  -0.46557
 Alpha  occ. eigenvalues --   -0.46484  -0.46303  -0.46097  -0.45335  -0.45077
 Alpha  occ. eigenvalues --   -0.44774  -0.44700  -0.44542  -0.44239  -0.44117
 Alpha  occ. eigenvalues --   -0.44066  -0.43796  -0.43632  -0.43394  -0.43300
 Alpha  occ. eigenvalues --   -0.43186  -0.43067  -0.42797  -0.42696  -0.42383
 Alpha  occ. eigenvalues --   -0.41725  -0.41574  -0.41338  -0.40896  -0.40714
 Alpha  occ. eigenvalues --   -0.40570  -0.40378  -0.39949  -0.39900  -0.39801
 Alpha  occ. eigenvalues --   -0.39740  -0.39372  -0.38896  -0.38773  -0.38718
 Alpha  occ. eigenvalues --   -0.38594  -0.38545  -0.38310  -0.36866  -0.36789
 Alpha  occ. eigenvalues --   -0.36087  -0.35997  -0.35665  -0.35649  -0.35562
 Alpha  occ. eigenvalues --   -0.35121  -0.34915  -0.34781  -0.34583  -0.34394
 Alpha  occ. eigenvalues --   -0.34092  -0.33433  -0.33174  -0.32935  -0.32798
 Alpha  occ. eigenvalues --   -0.32663  -0.32452  -0.31404  -0.30948  -0.30885
 Alpha  occ. eigenvalues --   -0.30464  -0.30397  -0.29946  -0.27464  -0.27441
 Alpha  occ. eigenvalues --   -0.27360  -0.27264  -0.27243  -0.26885  -0.26428
 Alpha  occ. eigenvalues --   -0.26235  -0.25214  -0.24322  -0.23546  -0.23241
 Alpha  occ. eigenvalues --   -0.22500  -0.22016  -0.21016  -0.20708
 Alpha virt. eigenvalues --   -0.14081  -0.12655  -0.11828  -0.11401  -0.09387
 Alpha virt. eigenvalues --   -0.08476  -0.07243  -0.06221  -0.05785  -0.05757
 Alpha virt. eigenvalues --   -0.05391  -0.04974  -0.04786  -0.04404  -0.03483

 Mulliken charges:
               1
     1  C   -0.026409
     2  C   -0.018551
     3  C   -0.020659
     4  C   -0.361632
     5  C    0.046237
     6  C   -0.010147
     7  C   -0.016141
     8  C    0.074399
     9  C    0.041514
    10  C    0.005550
    11  C    0.004707
    12  C    0.047232
    13  C   -0.028358
    14  C    0.004078
    15  C   -0.009889
    16  C    0.012311
    17  C   -0.001021
    18  C    0.046955
    19  C   -0.001698
    20  C    0.056321
    21  C   -0.024541
    22  C   -0.024497
    23  C   -0.000127
    24  C   -0.015256
    25  C   -0.024568
    26  C   -0.005133
    27  C   -0.020934
    28  C   -0.024769
    29  C    0.051387
    30  C   -0.017214
    31  C   -0.035028
    32  C   -0.008658
    33  C   -0.029553
    34  C   -0.022393
    35  C    0.039882
    36  C    0.040305
    37  C    0.045263
    38  C    0.070295
    39  C    0.041964
    40  C    0.001675
    41  C    0.077100
    42  C    0.119373
    43  C   -0.030646
    44  C    0.043087
    45  C    0.117593
    46  C    0.078603
    47  C    0.041097
    48  C    0.071414
    49  C   -0.024933
    50  C   -0.043858
    51  C   -0.012168
    52  C   -0.011392
    53  C   -0.008633
    54  C   -0.025480
    55  C   -0.023742
    56  C   -0.017830
    57  C    0.043329
    58  C   -0.030851
    59  C    0.055981
    60  C   -0.035049
    61  C   -0.021406
    62  C   -0.022481
    63  C   -0.032493
    64  C    0.051553
    65  C   -0.031318
    66  C    0.048063
    67  C    0.050234
    68  C    0.046925
    69  C   -0.021790
    70  C   -0.025245
    71  C   -0.010057
    72  C    0.002017
    73  C   -0.009225
    74  C   -0.007993
    75  C   -0.002663
    76  C    0.000134
    77  C   -0.024902
    78  C   -0.044499
    79  C    0.013948
    80  C   -0.362896
    81  C    0.004814
    82  C    0.073810
    83  C    0.044626
    84  C    0.053066
    85  Cl  -0.018648
    86  Cl  -0.019467
 Sum of Mulliken charges =  -0.00000

 Dipole moment (field-independent basis, Debye):
    X=             -3.0182    Y=              0.2019    Z=             -0.0117  Tot=              3.0250
 Quadrupole moment (field-independent basis, Debye-Ang):
   XX=           -502.2448   YY=           -475.7494   ZZ=           -476.5114
   XY=              2.9003   XZ=              2.8021   YZ=              3.1528

 Normal termination of Gaussian 16 at Sun Jun 26 15:55:03 2022.
