 Gaussian 16, Revision A.03,
 Gaussian 16:  ES64L-G16RevA.03 25-Dec-2016

 ------------------------------------------------
 #P opt b3lyp/6-31G(d, p) empiricaldispersion=GD3
 ------------------------------------------------

 -----
 force
 -----
 Symbolic Z-matrix:
 Charge =  0 Multiplicity = 1

 SCF Done:  E(RB3LYP) =  -4121.38849406     A.U. after   23 cycles
 SCF Done:  E(RB3LYP) =  -4121.40172924     A.U. after   18 cycles
 SCF Done:  E(RB3LYP) =  -4121.40212265     A.U. after   13 cycles
 SCF Done:  E(RB3LYP) =  -4121.40220584     A.U. after   12 cycles
 SCF Done:  E(RB3LYP) =  -4121.40221518     A.U. after   10 cycles
 Optimization completed.
    -- Stationary point found.

                         Input orientation:
 ---------------------------------------------------------------------
 Center     Atomic      Atomic             Coordinates (Angstroms)
 Number     Number       Type             X           Y           Z
 ---------------------------------------------------------------------
      1          6           0        2.866868    0.421636   -2.657932
      2          6           0       -0.020948    3.777443   -2.013663
      3          6           0       -1.620302   -1.873866    3.576367
      4          6           0       -2.956345    2.284487    2.362024
      5          6           0        1.760112   -0.149900   -3.336692
      6          6           0        1.405406    3.670457   -1.869845
      7          6           0       -2.682452   -2.228238    2.693454
      8          6           0       -2.165121    1.779998    3.460026
      9          6           0        0.645793    0.716563   -3.731594
     10          6           0        1.975986    3.803980   -0.614469
     11          6           0       -0.898995    2.260356    3.654858
     12          6           0       -3.583716   -1.263384    2.162947
     13          6           0        0.744451    2.090381   -3.444269
     14          6           0       -3.473556    0.032858    2.719129
     15          6           0        1.878768    2.645265   -2.761106
     16          6           0       -2.461509    0.374781    3.659801
     17          6           0        2.919319    1.814621   -2.354546
     18          6           0       -1.437508   -0.541298    4.025869
     19          6           0        3.548205    1.988111   -1.076391
     20          6           0       -0.069856   -0.037079    4.205413
     21          6           0        4.106559    0.674115   -0.575869
     22          6           0        1.018767   -0.893566    3.875241
     23          6           0        3.596964   -0.285234   -1.634538
     24          6           0        0.798130   -2.235001    3.370883
     25          6           0        3.296460   -1.576701   -1.354345
     26          6           0       -0.479844   -2.706926    3.227180
     27          6           0        2.264057   -2.230357   -2.081073
     28          6           0       -0.836144   -3.558523    2.101191
     29          6           0        1.518241   -1.556891   -3.094841
     30          6           0       -2.221714   -3.329757    1.864865
     31          6           0        0.262084   -2.098927   -3.400878
     32          6           0       -2.756804   -3.512771    0.612658
     33          6           0       -0.823163   -1.254160   -3.879252
     34          6           0       -3.774334   -2.605772    0.102864
     35          6           0       -0.698480    0.150183   -3.910670
     36          6           0       -4.111040   -1.418969    0.798242
     37          6           0       -1.885438    0.953619   -3.605463
     38          6           0       -4.443981   -0.227265    0.013142
     39          6           0       -1.711727    2.305897   -3.079449
     40          6           0       -2.195194    3.600055   -1.010363
     41          6           0       -2.978403    3.212291    0.151004
     42          6           0       -4.237637    1.104932    0.597360
     43          6           0       -0.419952    2.857993   -3.042078
     44          6           0       -0.858203    4.031395   -0.885394
     45          6           0       -2.421638    3.241948    1.448629
     46          6           0       -3.797023    1.216307    1.930293
     47          6           0       -0.266219    4.131883    0.455770
     48          6           0       -1.054571    3.729606    1.625415
     49          6           0        1.147791    4.064244    0.540659
     50          6           0       -0.358261    3.281055    2.777790
     51          6           0        1.802411    3.447088    1.665941
     52          6           0        1.051485    3.065931    2.756364
     53          6           0        3.063425    2.934413   -0.214210
     54          6           0        0.172684    1.349897    4.049969
     55          6           0        2.904505    2.635605    1.206069
     56          6           0        1.371576    1.838768    3.452836
     57          6           0        3.580930    0.286338    0.813088
     58          6           0        2.171330   -0.404466    3.203699
     59          6           0        3.315128   -1.052452    1.089639
     60          6           0        2.642635   -1.425403    2.282789
     61          6           0        3.408720   -2.149121    0.035457
     62          6           0        1.793437   -2.548911    2.373431
     63          6           0        2.209537   -3.103095    0.068359
     64          6           0        1.445125   -3.330935    1.201179
     65          6           0        1.647432   -3.206417   -1.234167
     66          6           0        0.065233   -3.808405    1.039324
     67          6           0        0.321530   -3.654670   -1.455770
     68          6           0       -0.492304   -3.999043   -0.298508
     69          6           0       -0.297176   -3.184862   -2.650883
     70          6           0       -1.906198   -3.936006   -0.461050
     71          6           0       -1.726416   -3.088131   -2.755783
     72          6           0       -2.513979   -3.455788   -1.680927
     73          6           0       -2.050145   -1.905403   -3.534429
     74          6           0       -3.673694   -2.648342   -1.325456
     75          6           0       -3.162935   -1.143996   -3.209257
     76          6           0       -3.987974   -1.520876   -2.067269
     77          6           0       -3.089242    0.279091   -3.272085
     78          6           0       -4.411479   -0.327322   -1.401114
     79          6           0       -2.633293    2.819900   -2.123373
     80          6           0       -3.905916    2.204882   -0.247003
     81          6           0       -3.960974    0.786224   -2.223693
     82          6           0       -3.730741    2.012375   -1.664710
     83          6           0        3.107624    1.341756    1.718056
     84          6           0        2.357778    0.963109    2.917260
     85         17           0        4.987098   -3.100049    0.282270
     86         17           0        5.973861    0.734071   -0.512434
 ---------------------------------------------------------------------

 The electronic state is 1-A.
 Alpha  occ. eigenvalues -- -101.54608-101.54240 -10.29759 -10.29588 -10.25534
 Alpha  occ. eigenvalues --  -10.25051 -10.25038 -10.24986 -10.24966 -10.24900
 Alpha  occ. eigenvalues --  -10.24882 -10.24843 -10.24750 -10.24743 -10.24719
 Alpha  occ. eigenvalues --  -10.24709 -10.24659 -10.24428 -10.24427 -10.24313
 Alpha  occ. eigenvalues --  -10.24272 -10.24250 -10.24210 -10.24183 -10.24150
 Alpha  occ. eigenvalues --  -10.24088 -10.24084 -10.24084 -10.24069 -10.24051
 Alpha  occ. eigenvalues --  -10.23998 -10.23966 -10.23954 -10.23870 -10.23862
 Alpha  occ. eigenvalues --  -10.23802 -10.23799 -10.23703 -10.23680 -10.23665
 Alpha  occ. eigenvalues --  -10.23649 -10.23616 -10.23588 -10.23565 -10.23516
 Alpha  occ. eigenvalues --  -10.23481 -10.23475 -10.23472 -10.23468 -10.23463
 Alpha  occ. eigenvalues --  -10.23427 -10.23406 -10.23398 -10.23380 -10.23375
 Alpha  occ. eigenvalues --  -10.23369 -10.23330 -10.23286 -10.23228 -10.23218
 Alpha  occ. eigenvalues --  -10.23217 -10.23122 -10.23093 -10.23067 -10.23036
 Alpha  occ. eigenvalues --  -10.22978 -10.22963 -10.22961 -10.22960 -10.22931
 Alpha  occ. eigenvalues --  -10.22916 -10.22898 -10.22897 -10.22874 -10.22815
 Alpha  occ. eigenvalues --  -10.22799 -10.22715 -10.22673 -10.22649 -10.22631
 Alpha  occ. eigenvalues --  -10.22616 -10.22606 -10.22567 -10.22485 -10.22398
 Alpha  occ. eigenvalues --  -10.22131  -9.46132  -9.45785  -7.22570  -7.22202
 Alpha  occ. eigenvalues --   -7.21535  -7.21531  -7.21201  -7.21187  -0.97243
 Alpha  occ. eigenvalues --   -0.96200  -0.95849  -0.95626  -0.93876  -0.93695
 Alpha  occ. eigenvalues --   -0.93180  -0.92924  -0.92450  -0.90428  -0.90211
 Alpha  occ. eigenvalues --   -0.90070  -0.88840  -0.88739  -0.88182  -0.87893
 Alpha  occ. eigenvalues --   -0.86136  -0.85697  -0.84946  -0.84010  -0.83627
 Alpha  occ. eigenvalues --   -0.83452  -0.83347  -0.83203  -0.82938  -0.81735
 Alpha  occ. eigenvalues --   -0.81403  -0.79183  -0.79073  -0.78739  -0.78220
 Alpha  occ. eigenvalues --   -0.78096  -0.77946  -0.77380  -0.77244  -0.76743
 Alpha  occ. eigenvalues --   -0.76091  -0.75270  -0.73302  -0.72823  -0.72681
 Alpha  occ. eigenvalues --   -0.72468  -0.71781  -0.71528  -0.70853  -0.70377
 Alpha  occ. eigenvalues --   -0.69537  -0.68644  -0.68564  -0.67030  -0.66429
 Alpha  occ. eigenvalues --   -0.65336  -0.65293  -0.64862  -0.64485  -0.64410
 Alpha  occ. eigenvalues --   -0.64108  -0.63437  -0.62807  -0.61946  -0.61651
 Alpha  occ. eigenvalues --   -0.61291  -0.59687  -0.58964  -0.58852  -0.57873
 Alpha  occ. eigenvalues --   -0.57651  -0.57448  -0.56994  -0.56610  -0.56504
 Alpha  occ. eigenvalues --   -0.55219  -0.54786  -0.53849  -0.53137  -0.52917
 Alpha  occ. eigenvalues --   -0.52569  -0.52266  -0.52215  -0.51542  -0.51462
 Alpha  occ. eigenvalues --   -0.51158  -0.50397  -0.49473  -0.49126  -0.48979
 Alpha  occ. eigenvalues --   -0.48678  -0.48413  -0.48204  -0.47918  -0.47591
 Alpha  occ. eigenvalues --   -0.47409  -0.47288  -0.47162  -0.46929  -0.46569
 Alpha  occ. eigenvalues --   -0.46460  -0.46188  -0.46096  -0.45536  -0.45132
 Alpha  occ. eigenvalues --   -0.44886  -0.44628  -0.44535  -0.44287  -0.44169
 Alpha  occ. eigenvalues --   -0.43940  -0.43822  -0.43610  -0.43527  -0.43314
 Alpha  occ. eigenvalues --   -0.43274  -0.43190  -0.42809  -0.42651  -0.42477
 Alpha  occ. eigenvalues --   -0.41736  -0.41407  -0.41249  -0.40879  -0.40703
 Alpha  occ. eigenvalues --   -0.40545  -0.40404  -0.40061  -0.39943  -0.39772
 Alpha  occ. eigenvalues --   -0.39533  -0.39380  -0.39070  -0.38808  -0.38775
 Alpha  occ. eigenvalues --   -0.38570  -0.38398  -0.38210  -0.37304  -0.36649
 Alpha  occ. eigenvalues --   -0.36408  -0.35943  -0.35696  -0.35537  -0.35392
 Alpha  occ. eigenvalues --   -0.35191  -0.34939  -0.34693  -0.34572  -0.34395
 Alpha  occ. eigenvalues --   -0.34074  -0.33577  -0.33228  -0.33006  -0.32862
 Alpha  occ. eigenvalues --   -0.32571  -0.32409  -0.31379  -0.31214  -0.30748
 Alpha  occ. eigenvalues --   -0.30406  -0.30281  -0.29962  -0.27503  -0.27461
 Alpha  occ. eigenvalues --   -0.27384  -0.27355  -0.27284  -0.26809  -0.26502
 Alpha  occ. eigenvalues --   -0.26070  -0.24966  -0.24154  -0.23742  -0.23050
 Alpha  occ. eigenvalues --   -0.22871  -0.22192  -0.21029  -0.19576
 Alpha virt. eigenvalues --   -0.15582  -0.12813  -0.11733  -0.11342  -0.09235
 Alpha virt. eigenvalues --   -0.08271  -0.07467  -0.06318  -0.05892  -0.05853
 Alpha virt. eigenvalues --   -0.05461  -0.04971  -0.04824  -0.04071  -0.03494

 Mulliken charges:
               1
     1  C   -0.003755
     2  C   -0.023091
     3  C   -0.022516
     4  C   -0.019175
     5  C    0.039021
     6  C   -0.012649
     7  C   -0.017988
     8  C   -0.016864
     9  C    0.044332
    10  C    0.003492
    11  C   -0.003478
    12  C    0.053534
    13  C   -0.029600
    14  C   -0.026365
    15  C   -0.021975
    16  C   -0.022471
    17  C    0.028714
    18  C    0.054884
    19  C    0.075637
    20  C    0.059889
    21  C   -0.350884
    22  C   -0.025896
    23  C    0.093854
    24  C   -0.015930
    25  C    0.088788
    26  C    0.002498
    27  C    0.007559
    28  C   -0.022069
    29  C    0.044884
    30  C   -0.015135
    31  C   -0.034856
    32  C   -0.012084
    33  C   -0.025533
    34  C   -0.024424
    35  C    0.042349
    36  C    0.045137
    37  C    0.044716
    38  C    0.044810
    39  C    0.052739
    40  C   -0.032834
    41  C   -0.031783
    42  C    0.054409
    43  C   -0.036270
    44  C    0.051641
    45  C    0.050713
    46  C   -0.032706
    47  C    0.045523
    48  C    0.043417
    49  C   -0.025414
    50  C   -0.021938
    51  C   -0.006677
    52  C   -0.013297
    53  C    0.011693
    54  C   -0.023724
    55  C   -0.045704
    56  C   -0.018892
    57  C    0.098319
    58  C   -0.031911
    59  C    0.132571
    60  C    0.009218
    61  C   -0.359669
    62  C   -0.040729
    63  C    0.040751
    64  C    0.066019
    65  C    0.009936
    66  C    0.043914
    67  C    0.040271
    68  C    0.044613
    69  C   -0.017507
    70  C   -0.022587
    71  C   -0.009028
    72  C    0.004668
    73  C   -0.010641
    74  C   -0.009214
    75  C   -0.000268
    76  C   -0.001599
    77  C   -0.026633
    78  C   -0.024956
    79  C   -0.022143
    80  C   -0.021149
    81  C   -0.000391
    82  C   -0.024462
    83  C    0.076736
    84  C    0.052711
    85  Cl  -0.015359
    86  Cl  -0.029732
 Sum of Mulliken charges =  -0.00000

 Dipole moment (field-independent basis, Debye):
    X=             -3.6940    Y=              0.1011    Z=             -0.1720  Tot=              3.6994
 Quadrupole moment (field-independent basis, Debye-Ang):
   XX=           -500.9019   YY=           -479.5537   ZZ=           -474.7888
   XY=              7.2367   XZ=             -0.6170   YZ=              2.4097

 Normal termination of Gaussian 16 at Sun Jun 26 16:31:38 2022.
