 Gaussian 16, Revision A.03,
 Gaussian 16:  ES64L-G16RevA.03 25-Dec-2016

 ------------------------------------------------
 #P opt b3lyp/6-31G(d, p) empiricaldispersion=GD3
 ------------------------------------------------

 -----
 force
 -----
 Symbolic Z-matrix:
 Charge =  0 Multiplicity = 1

 SCF Done:  E(RB3LYP) =  -5041.78921924     A.U. after   22 cycles
 SCF Done:  E(RB3LYP) =  -5041.80316827     A.U. after   16 cycles
 SCF Done:  E(RB3LYP) =  -5041.80368022     A.U. after   14 cycles
 SCF Done:  E(RB3LYP) =  -5041.80380699     A.U. after   13 cycles
 SCF Done:  E(RB3LYP) =  -5041.80381947     A.U. after   11 cycles
 Optimization completed.
    -- Stationary point found.

                         Input orientation:
 ---------------------------------------------------------------------
 Center     Atomic      Atomic             Coordinates (Angstroms)
 Number     Number       Type             X           Y           Z
 ---------------------------------------------------------------------
      1          6           0        4.595063   -1.283331    0.776692
      2          6           0        2.219026   -2.565560   -2.811561
      3          6           0       -2.110584    3.228753    0.806568
      4          6           0       -2.215317    0.607023   -2.830414
      5          6           0        3.692585   -2.147336    1.456574
      6          6           0        3.472949   -1.882819   -2.665226
      7          6           0       -3.097444    2.239472    1.425856
      8          6           0       -1.969476    1.996791   -2.669110
      9          6           0        2.922258   -3.108673    0.666475
     10          6           0        3.604879   -0.591252   -3.141393
     11          6           0       -0.774425    2.518829   -3.075699
     12          6           0       -3.343831    1.047493    0.516818
     13          6           0        3.135634   -3.143446   -0.728477
     14          6           0       -3.212004    1.253121   -0.827723
     15          6           0        4.048409   -2.255740   -1.384635
     16          6           0       -2.734334    2.549221   -1.481094
     17          6           0        4.752847   -1.322248   -0.641136
     18          6           0       -1.860131    3.357939   -0.539058
     19          6           0        4.884529    0.043867   -1.134900
     20          6           0       -0.570754    3.870675   -0.986320
     21          6           0        4.788144    0.936336   -0.020633
     22          6           0        0.405578    4.205999   -0.012290
     23          6           0        4.740259    0.105699    1.171760
     24          6           0        0.133750    4.002941    1.378856
     25          6           0        4.135544    0.565500    2.312199
     26          6           0       -1.086736    3.511039    1.772809
     27          6           0        3.376266   -0.331662    3.137898
     28          6           0       -1.179482    2.570890    2.870444
     29          6           0        3.146440   -1.673732    2.725060
     30          6           0       -2.354426    1.821844    2.674910
     31          6           0        1.985269   -2.284070    3.235791
     32          6           0       -2.437479    0.539005    3.161786
     33          6           0        1.284069   -3.311417    2.493946
     34          6           0       -3.062751   -0.520288    2.396562
     35          6           0        1.642231   -3.626686    1.170664
     36          6           0       -3.358999   -0.314112    1.033673
     37          6           0        0.569772   -3.971799    0.231858
     38          6           0       -3.182110   -1.421145    0.101951
     39          6           0        0.771943   -3.765083   -1.186685
     40          6           0       -0.169262   -2.418152   -3.059495
     41          6           0       -1.332180   -1.613404   -3.121020
     42          6           0       -2.977881   -1.169119   -1.249979
     43          6           0        2.043371   -3.392909   -1.651878
     44          6           0        1.108628   -1.932538   -3.440694
     45          6           0       -1.256474   -0.269105   -3.467538
     46          6           0       -2.991894    0.164751   -1.722046
     47          6           0        1.218742   -0.559270   -3.907960
     48          6           0        0.028173    0.284739   -3.895689
     49          6           0        2.494699    0.066986   -3.787866
     50          6           0        0.200791    1.681499   -3.750993
     51          6           0        2.605467    1.459973   -3.474391
     52          6           0        1.476664    2.246252   -3.461006
     53          6           0        4.328297    0.398932   -2.352806
     54          6           0       -0.061979    3.493921   -2.257787
     55          6           0        3.654766    1.656231   -2.484034
     56          6           0        1.328725    3.290684   -2.466934
     57          6           0        4.060998    2.153680   -0.095445
     58          6           0        1.801202    3.938731   -0.205622
     59          6           0        3.461665    2.654003    1.145972
     60          6           0        2.374123    3.553023    1.071813
     61          6           0        3.523459    1.867585    2.330570
     62          6           0        1.332159    3.553986    2.045698
     63          6           0        2.432712    1.797937    3.254576
     64          6           0        1.271726    2.583539    3.090701
     65          6           0        2.344592    0.442609    3.756850
     66          6           0       -0.018302    2.036144    3.502110
     67          6           0        1.110521   -0.129347    4.135078
     68          6           0       -0.104468    0.686580    4.039352
     69          6           0        1.020929   -1.547643    4.003647
     70          6           0       -1.343231   -0.000695    3.923626
     71          6           0       -0.251850   -2.197507    3.842351
     72          6           0       -1.409924   -1.434976    3.799288
     73          6           0       -0.088159   -3.294864    2.929188
     74          6           0       -2.465564   -1.764731    2.862669
     75          6           0       -1.105091   -3.589113    2.027101
     76          6           0       -2.328208   -2.839275    2.021174
     77          6           0       -0.774493   -3.945545    0.684143
     78          6           0       -2.943339   -2.840224    0.641004
     79          6           0       -0.330878   -3.375000   -2.000089
     80          6           0       -2.417100   -2.200995   -2.214592
     81          6           0       -1.866612   -3.543812   -0.164784
     82          6           0       -1.645010   -3.263762   -1.473838
     83          6           0        3.468916    2.528774   -1.384284
     84          6           0        2.292749    3.411824   -1.413499
     85         17           0       -4.174549    3.564811   -2.059135
     86         17           0       -4.710818    3.063122    1.855537
     87         17           0       -3.794923   -2.902400   -3.239434
     88         17           0       -4.564182   -3.754627    0.624641
 ---------------------------------------------------------------------

 The electronic state is 1-A.
 Alpha  occ. eigenvalues -- -101.55426-101.55195-101.55132-101.54800 -10.30566
 Alpha  occ. eigenvalues --  -10.30459 -10.30303 -10.30157 -10.26600 -10.25773
 Alpha  occ. eigenvalues --  -10.25501 -10.25450 -10.25358 -10.25321 -10.25284
 Alpha  occ. eigenvalues --  -10.25273 -10.25270 -10.25219 -10.25217 -10.25134
 Alpha  occ. eigenvalues --  -10.25123 -10.25071 -10.25043 -10.24976 -10.24969
 Alpha  occ. eigenvalues --  -10.24964 -10.24941 -10.24941 -10.24925 -10.24913
 Alpha  occ. eigenvalues --  -10.24897 -10.24856 -10.24828 -10.24816 -10.24763
 Alpha  occ. eigenvalues --  -10.24748 -10.24685 -10.24630 -10.24621 -10.24499
 Alpha  occ. eigenvalues --  -10.24370 -10.24343 -10.24303 -10.24234 -10.24233
 Alpha  occ. eigenvalues --  -10.24218 -10.24212 -10.24208 -10.24167 -10.24157
 Alpha  occ. eigenvalues --  -10.24088 -10.24076 -10.24042 -10.24013 -10.23976
 Alpha  occ. eigenvalues --  -10.23889 -10.23865 -10.23853 -10.23839 -10.23822
 Alpha  occ. eigenvalues --  -10.23786 -10.23777 -10.23761 -10.23750 -10.23740
 Alpha  occ. eigenvalues --  -10.23737 -10.23659 -10.23653 -10.23573 -10.23570
 Alpha  occ. eigenvalues --  -10.23555 -10.23523 -10.23389 -10.23321 -10.23292
 Alpha  occ. eigenvalues --  -10.23085 -10.23058 -10.23020 -10.22983 -10.22954
 Alpha  occ. eigenvalues --  -10.22944 -10.22893 -10.22889 -10.22845 -10.22765
 Alpha  occ. eigenvalues --  -10.22657 -10.22638 -10.22313  -9.46951  -9.46724
 Alpha  occ. eigenvalues --   -9.46675  -9.46334  -7.23394  -7.23167  -7.23105
 Alpha  occ. eigenvalues --   -7.22764  -7.22351  -7.22347  -7.22125  -7.22117
 Alpha  occ. eigenvalues --   -7.22082  -7.22072  -7.21743  -7.21734  -0.98062
 Alpha  occ. eigenvalues --   -0.96728  -0.96677  -0.96339  -0.94432  -0.94330
 Alpha  occ. eigenvalues --   -0.94128  -0.93505  -0.93156  -0.91179  -0.90865
 Alpha  occ. eigenvalues --   -0.90701  -0.89704  -0.89555  -0.88979  -0.88733
 Alpha  occ. eigenvalues --   -0.87069  -0.86384  -0.85893  -0.85214  -0.85040
 Alpha  occ. eigenvalues --   -0.84438  -0.84111  -0.83876  -0.83846  -0.82740
 Alpha  occ. eigenvalues --   -0.82457  -0.82029  -0.81354  -0.79623  -0.79375
 Alpha  occ. eigenvalues --   -0.79324  -0.78790  -0.78643  -0.78423  -0.78032
 Alpha  occ. eigenvalues --   -0.77519  -0.77005  -0.76487  -0.75573  -0.73679
 Alpha  occ. eigenvalues --   -0.73402  -0.73100  -0.73017  -0.72193  -0.72029
 Alpha  occ. eigenvalues --   -0.71427  -0.70904  -0.70034  -0.69288  -0.69069
 Alpha  occ. eigenvalues --   -0.67674  -0.67020  -0.66016  -0.65886  -0.65384
 Alpha  occ. eigenvalues --   -0.65090  -0.64973  -0.64609  -0.63988  -0.63507
 Alpha  occ. eigenvalues --   -0.62512  -0.62300  -0.62029  -0.60421  -0.59607
 Alpha  occ. eigenvalues --   -0.59455  -0.58454  -0.58247  -0.58062  -0.57665
 Alpha  occ. eigenvalues --   -0.57249  -0.57138  -0.55806  -0.55359  -0.54484
 Alpha  occ. eigenvalues --   -0.53996  -0.53722  -0.53193  -0.53117  -0.52855
 Alpha  occ. eigenvalues --   -0.52337  -0.52036  -0.51817  -0.51156  -0.50339
 Alpha  occ. eigenvalues --   -0.49979  -0.49637  -0.49427  -0.49207  -0.49028
 Alpha  occ. eigenvalues --   -0.48649  -0.48447  -0.48225  -0.47998  -0.47937
 Alpha  occ. eigenvalues --   -0.47868  -0.47334  -0.47072  -0.46909  -0.46745
 Alpha  occ. eigenvalues --   -0.46413  -0.45961  -0.45842  -0.45672  -0.45471
 Alpha  occ. eigenvalues --   -0.45137  -0.44959  -0.44766  -0.44591  -0.44449
 Alpha  occ. eigenvalues --   -0.44307  -0.44019  -0.43929  -0.43770  -0.43423
 Alpha  occ. eigenvalues --   -0.43348  -0.43111  -0.42679  -0.42459  -0.42239
 Alpha  occ. eigenvalues --   -0.41892  -0.41726  -0.41443  -0.41254  -0.41197
 Alpha  occ. eigenvalues --   -0.40992  -0.40750  -0.40679  -0.40355  -0.39972
 Alpha  occ. eigenvalues --   -0.39606  -0.39407  -0.39284  -0.39183  -0.39027
 Alpha  occ. eigenvalues --   -0.38256  -0.37827  -0.37740  -0.37426  -0.37211
 Alpha  occ. eigenvalues --   -0.37065  -0.36530  -0.36171  -0.35785  -0.35536
 Alpha  occ. eigenvalues --   -0.35396  -0.35108  -0.34901  -0.34856  -0.34432
 Alpha  occ. eigenvalues --   -0.33993  -0.33661  -0.33443  -0.33193  -0.32736
 Alpha  occ. eigenvalues --   -0.32666  -0.32122  -0.31680  -0.31577  -0.31481
 Alpha  occ. eigenvalues --   -0.31289  -0.30892  -0.30789  -0.30774  -0.30350
 Alpha  occ. eigenvalues --   -0.29220  -0.27819  -0.27796  -0.27759  -0.27711
 Alpha  occ. eigenvalues --   -0.27370  -0.27170  -0.26807  -0.25923  -0.25019
 Alpha  occ. eigenvalues --   -0.24376  -0.23823  -0.22992  -0.22616  -0.21250
 Alpha  occ. eigenvalues --   -0.20144
 Alpha virt. eigenvalues --   -0.16001  -0.13324  -0.12319  -0.10725  -0.10483
 Alpha virt. eigenvalues --   -0.09353  -0.08756  -0.07450  -0.06703  -0.06157
 Alpha virt. eigenvalues --   -0.05877  -0.05537  -0.05046  -0.04528  -0.04294

 Mulliken charges:
               1
     1  C   -0.024467
     2  C   -0.017390
     3  C    0.079684
     4  C   -0.003793
     5  C    0.044502
     6  C   -0.008827
     7  C   -0.364290
     8  C    0.079542
     9  C    0.040626
    10  C    0.005935
    11  C    0.003721
    12  C    0.119423
    13  C   -0.024520
    14  C    0.080101
    15  C   -0.009479
    16  C   -0.367283
    17  C    0.000212
    18  C    0.123860
    19  C   -0.001045
    20  C    0.084910
    21  C   -0.024220
    22  C   -0.028114
    23  C   -0.001021
    24  C   -0.027536
    25  C   -0.023938
    26  C    0.027774
    27  C   -0.020989
    28  C    0.011926
    29  C    0.051804
    30  C    0.077669
    31  C   -0.035860
    32  C    0.006215
    33  C   -0.030333
    34  C   -0.059792
    35  C    0.046702
    36  C    0.099266
    37  C    0.037323
    38  C    0.101328
    39  C    0.046022
    40  C    0.010830
    41  C    0.044486
    42  C    0.127581
    43  C   -0.032911
    44  C    0.042207
    45  C    0.059500
    46  C    0.043650
    47  C    0.043724
    48  C    0.042942
    49  C   -0.023915
    50  C   -0.020217
    51  C   -0.010006
    52  C   -0.016877
    53  C   -0.008648
    54  C   -0.043352
    55  C   -0.024660
    56  C   -0.014414
    57  C    0.043277
    58  C   -0.031352
    59  C    0.055176
    60  C   -0.033158
    61  C   -0.021713
    62  C   -0.017535
    63  C   -0.036426
    64  C    0.055538
    65  C   -0.030953
    66  C    0.035366
    67  C    0.051438
    68  C    0.041785
    69  C   -0.024368
    70  C   -0.022272
    71  C   -0.010531
    72  C    0.003192
    73  C   -0.022418
    74  C    0.016296
    75  C    0.029824
    76  C    0.077629
    77  C   -0.001940
    78  C   -0.356491
    79  C    0.007716
    80  C   -0.365360
    81  C    0.092934
    82  C    0.089652
    83  C    0.046658
    84  C    0.053921
    85  Cl  -0.005258
    86  Cl  -0.018033
    87  Cl  -0.004732
    88  Cl  -0.013432
 Sum of Mulliken charges =  -0.00000

 Dipole moment (field-independent basis, Debye):
    X=              4.9077    Y=             -0.7172    Z=             -0.0189  Tot=              4.9599
 Quadrupole moment (field-independent basis, Debye-Ang):
   XX=           -527.0388   YY=           -513.5831   ZZ=           -505.6897
   XY=             -0.0917   XZ=             -6.0931   YZ=             -0.9877

 Normal termination of Gaussian 16 at Thu Jun 30 13:00:33 2022.
