 Gaussian 16, Revision A.03,
 Gaussian 16:  ES64L-G16RevA.03 25-Dec-2016

 ------------------------------------------------
 #P opt b3lyp/6-31G(d, p) empiricaldispersion=GD3
 ------------------------------------------------

 -----
 force
 -----
 Symbolic Z-matrix:
 Charge =  0 Multiplicity = 1

 SCF Done:  E(RB3LYP) =  -5041.80461977     A.U. after   21 cycles
 SCF Done:  E(RB3LYP) =  -5041.81876813     A.U. after   15 cycles
 SCF Done:  E(RB3LYP) =  -5041.81926597     A.U. after   13 cycles
 SCF Done:  E(RB3LYP) =  -5041.81938480     A.U. after   10 cycles
 SCF Done:  E(RB3LYP) =  -5041.81939742     A.U. after    9 cycles
 Optimization completed.
    -- Stationary point found.

                         Input orientation:
 ---------------------------------------------------------------------
 Center     Atomic      Atomic             Coordinates (Angstroms)
 Number     Number       Type             X           Y           Z
 ---------------------------------------------------------------------
      1          6           0        0.151215   -3.702598    2.777265
      2          6           0        1.360087    0.439759    3.999263
      3          6           0       -1.541440    1.058447   -3.519568
      4          6           0        0.061559    3.946460   -0.208226
      5          6           0        1.399669   -3.669670    2.105458
      6          6           0        0.322501   -0.448088    4.454354
      7          6           0       -0.177446    1.073073   -3.895968
      8          6           0       -1.266113    3.458136   -0.733074
      9          6           0        2.376276   -2.646496    2.494401
     10          6           0       -0.998775   -0.081582    4.305713
     11          6           0       -2.247089    2.994693    0.096164
     12          6           0        0.787178    1.920566   -3.257000
     13          6           0        2.021239   -1.759038    3.532813
     14          6           0        0.260560    2.873880   -2.368407
     15          6           0        0.745025   -1.811593    4.182763
     16          6           0       -1.133694    2.900190   -2.027746
     17          6           0       -0.186519   -2.759606    3.794571
     18          6           0       -2.044928    1.918352   -2.506664
     19          6           0       -1.586281   -2.375752    3.631374
     20          6           0       -3.095993    1.467614   -1.616347
     21          6           0       -2.112598   -3.065145    2.502222
     22          6           0       -3.769583    0.126831   -1.835739
     23          6           0       -1.079026   -3.982792    2.050556
     24          6           0       -2.960167   -0.784538   -2.734985
     25          6           0       -1.036446   -4.395580    0.747499
     26          6           0       -2.008590   -0.324699   -3.596984
     27          6           0        0.230540   -4.571593    0.087901
     28          6           0       -0.887964   -1.165477   -3.963200
     29          6           0        1.439911   -4.212197    0.747156
     30          6           0        0.193777   -0.279251   -4.265219
     31          6           0        2.510280   -3.859156   -0.091519
     32          6           0        1.490968   -0.698986   -4.125230
     33          6           0        3.535116   -2.923990    0.339146
     34          6           0        2.514464    0.202481   -3.606622
     35          6           0        3.411522   -2.210103    1.549157
     36          6           0        2.156183    1.462974   -3.054538
     37          6           0        3.906923   -0.831845    1.580712
     38          6           0        2.910559    1.960279   -1.906062
     39          6           0        3.324752    0.107439    2.521227
     40          6           0        2.012234    2.219739    2.519938
     41          6           0        1.669804    3.109859    1.453222
     42          6           0        2.280659    2.913206   -0.995118
     43          6           0        2.429851   -0.364469    3.498120
     44          6           0        1.039382    1.693619    3.398526
     45          6           0        0.363026    3.419630    1.184992
     46          6           0        1.019031    3.369763   -1.257851
     47          6           0       -0.348542    2.066587    3.187951
     48          6           0       -0.686852    2.906557    2.053418
     49          6           0       -1.345309    1.185508    3.699516
     50          6           0       -1.998350    2.784554    1.516850
     51          6           0       -2.581790    0.996569    3.018186
     52          6           0       -2.908571    1.813135    1.961523
     53          6           0       -1.987068   -1.067880    3.883579
     54          6           0       -3.192075    2.020404   -0.361152
     55          6           0       -2.923098   -0.427054    3.019348
     56          6           0       -3.817550    1.329354    0.850642
     57          6           0       -2.973309   -2.421435    1.569249
     58          6           0       -3.824269   -0.702326   -0.549470
     59          6           0       -2.939268   -2.898631    0.192592
     60          6           0       -3.372142   -2.034726   -0.833160
     61          6           0       -1.996505   -3.892307   -0.199060
     62          6           0       -2.803612   -2.071214   -2.146315
     63          6           0       -1.349554   -3.859307   -1.469940
     64          6           0       -1.689161   -2.911787   -2.457226
     65          6           0        0.025475   -4.295198   -1.297547
     66          6           0       -0.658905   -2.428567   -3.369041
     67          6           0        1.060879   -3.802832   -2.119836
     68          6           0        0.728370   -2.879832   -3.209533
     69          6           0        2.352891   -3.745323   -1.513790
     70          6           0        1.766222   -2.036790   -3.680032
     71          6           0        3.353490   -2.830676   -1.986812
     72          6           0        3.069353   -1.994516   -3.048070
     73          6           0        4.094203   -2.333884   -0.840128
     74          6           0        3.522838   -0.610642   -3.024771
     75          6           0        4.541479   -1.021655   -0.815923
     76          6           0        4.245529   -0.128475   -1.930563
     77          6           0        4.465552   -0.278624    0.398361
     78          6           0        3.979166    1.166757   -1.414088
     79          6           0        3.173424    1.475068    2.146586
     80          6           0        2.800195    3.124081    0.418714
     81          6           0        4.243413    1.106728    0.029899
     82          6           0        3.635455    1.961170    0.893103
     83          6           0       -3.387619   -1.046242    1.833666
     84          6           0       -3.791930   -0.188854    0.717074
     85         17           0        0.117780    5.807466   -0.214211
     86         17           0       -5.477568    0.365715   -2.529014
     87         17           0       -5.564138    1.913617    1.125168
     88         17           0        3.768362    4.710694    0.519615
 ---------------------------------------------------------------------

 The electronic state is 1-A.
 Alpha  occ. eigenvalues -- -101.54993-101.54788-101.54786-101.54693 -10.30125
 Alpha  occ. eigenvalues --  -10.30103 -10.30079 -10.30033 -10.25561 -10.25440
 Alpha  occ. eigenvalues --  -10.25403 -10.25395 -10.25363 -10.25352 -10.25318
 Alpha  occ. eigenvalues --  -10.25294 -10.25292 -10.25148 -10.25146 -10.25130
 Alpha  occ. eigenvalues --  -10.25109 -10.25098 -10.25011 -10.24975 -10.24815
 Alpha  occ. eigenvalues --  -10.24777 -10.24771 -10.24753 -10.24733 -10.24717
 Alpha  occ. eigenvalues --  -10.24712 -10.24618 -10.24613 -10.24597 -10.24510
 Alpha  occ. eigenvalues --  -10.24506 -10.24468 -10.24408 -10.24386 -10.24361
 Alpha  occ. eigenvalues --  -10.24348 -10.24324 -10.24242 -10.24238 -10.24221
 Alpha  occ. eigenvalues --  -10.24193 -10.24172 -10.24145 -10.24100 -10.24046
 Alpha  occ. eigenvalues --  -10.24032 -10.24023 -10.24009 -10.23999 -10.23969
 Alpha  occ. eigenvalues --  -10.23958 -10.23937 -10.23937 -10.23931 -10.23925
 Alpha  occ. eigenvalues --  -10.23922 -10.23921 -10.23881 -10.23873 -10.23858
 Alpha  occ. eigenvalues --  -10.23835 -10.23758 -10.23748 -10.23747 -10.23734
 Alpha  occ. eigenvalues --  -10.23690 -10.23688 -10.23662 -10.23634 -10.23615
 Alpha  occ. eigenvalues --  -10.23602 -10.23569 -10.23546 -10.23495 -10.23426
 Alpha  occ. eigenvalues --  -10.23402 -10.23399 -10.23374 -10.23336 -10.23282
 Alpha  occ. eigenvalues --  -10.23273 -10.23083 -10.22881  -9.46523  -9.46319
 Alpha  occ. eigenvalues --   -9.46317  -9.46228  -7.22960  -7.22752  -7.22750
 Alpha  occ. eigenvalues --   -7.22657  -7.21927  -7.21919  -7.21727  -7.21725
 Alpha  occ. eigenvalues --   -7.21717  -7.21712  -7.21638  -7.21626  -0.97896
 Alpha  occ. eigenvalues --   -0.96644  -0.96616  -0.96442  -0.94551  -0.94349
 Alpha  occ. eigenvalues --   -0.94285  -0.93375  -0.93102  -0.91233  -0.90981
 Alpha  occ. eigenvalues --   -0.90745  -0.89699  -0.89328  -0.89018  -0.88864
 Alpha  occ. eigenvalues --   -0.87201  -0.86254  -0.86047  -0.85093  -0.84883
 Alpha  occ. eigenvalues --   -0.84362  -0.84152  -0.84031  -0.83789  -0.82439
 Alpha  occ. eigenvalues --   -0.82140  -0.81857  -0.81542  -0.79660  -0.79471
 Alpha  occ. eigenvalues --   -0.79277  -0.78882  -0.78706  -0.78440  -0.77822
 Alpha  occ. eigenvalues --   -0.77554  -0.77307  -0.76701  -0.75394  -0.73601
 Alpha  occ. eigenvalues --   -0.73495  -0.73344  -0.73117  -0.72374  -0.71825
 Alpha  occ. eigenvalues --   -0.71468  -0.70891  -0.70158  -0.69143  -0.69047
 Alpha  occ. eigenvalues --   -0.67725  -0.67095  -0.66023  -0.65903  -0.65338
 Alpha  occ. eigenvalues --   -0.65241  -0.65046  -0.64732  -0.63962  -0.63566
 Alpha  occ. eigenvalues --   -0.62559  -0.62461  -0.62035  -0.60220  -0.59729
 Alpha  occ. eigenvalues --   -0.59502  -0.58532  -0.58201  -0.58126  -0.57752
 Alpha  occ. eigenvalues --   -0.57170  -0.57073  -0.55965  -0.55403  -0.54563
 Alpha  occ. eigenvalues --   -0.53901  -0.53580  -0.53255  -0.53148  -0.52895
 Alpha  occ. eigenvalues --   -0.52359  -0.51956  -0.51853  -0.51215  -0.50271
 Alpha  occ. eigenvalues --   -0.49828  -0.49509  -0.49411  -0.49282  -0.48968
 Alpha  occ. eigenvalues --   -0.48860  -0.48457  -0.48361  -0.48127  -0.47782
 Alpha  occ. eigenvalues --   -0.47688  -0.47412  -0.47057  -0.47035  -0.46986
 Alpha  occ. eigenvalues --   -0.46415  -0.46060  -0.45888  -0.45383  -0.45330
 Alpha  occ. eigenvalues --   -0.45273  -0.44921  -0.44824  -0.44715  -0.44525
 Alpha  occ. eigenvalues --   -0.44267  -0.43917  -0.43885  -0.43706  -0.43499
 Alpha  occ. eigenvalues --   -0.43333  -0.43160  -0.43075  -0.42610  -0.42313
 Alpha  occ. eigenvalues --   -0.41983  -0.41594  -0.41511  -0.41320  -0.41043
 Alpha  occ. eigenvalues --   -0.40839  -0.40737  -0.40486  -0.40335  -0.40092
 Alpha  occ. eigenvalues --   -0.39881  -0.39611  -0.39379  -0.39289  -0.39096
 Alpha  occ. eigenvalues --   -0.38715  -0.37919  -0.37705  -0.37062  -0.36646
 Alpha  occ. eigenvalues --   -0.36570  -0.36467  -0.36300  -0.36040  -0.35800
 Alpha  occ. eigenvalues --   -0.35604  -0.35380  -0.35276  -0.35097  -0.34424
 Alpha  occ. eigenvalues --   -0.33928  -0.33729  -0.33497  -0.33473  -0.32434
 Alpha  occ. eigenvalues --   -0.32149  -0.31798  -0.31763  -0.31297  -0.31147
 Alpha  occ. eigenvalues --   -0.30880  -0.30779  -0.30687  -0.30260  -0.30201
 Alpha  occ. eigenvalues --   -0.30050  -0.27902  -0.27832  -0.27728  -0.27711
 Alpha  occ. eigenvalues --   -0.27341  -0.26864  -0.26567  -0.26174  -0.25389
 Alpha  occ. eigenvalues --   -0.24723  -0.23783  -0.23505  -0.21821  -0.21759
 Alpha  occ. eigenvalues --   -0.21282
 Alpha virt. eigenvalues --   -0.14261  -0.13699  -0.12188  -0.10930  -0.10388
 Alpha virt. eigenvalues --   -0.09623  -0.08554  -0.07516  -0.06559  -0.05973
 Alpha virt. eigenvalues --   -0.05858  -0.05783  -0.05186  -0.04664  -0.04441

 Mulliken charges:
               1
     1  C   -0.025391
     2  C   -0.018114
     3  C   -0.042101
     4  C   -0.363473
     5  C    0.047040
     6  C   -0.008198
     7  C   -0.011323
     8  C    0.067160
     9  C    0.042039
    10  C    0.005942
    11  C    0.036288
    12  C    0.046118
    13  C   -0.027785
    14  C    0.000348
    15  C   -0.009043
    16  C    0.009214
    17  C   -0.000244
    18  C    0.075827
    19  C   -0.000928
    20  C    0.127252
    21  C   -0.020717
    22  C   -0.365617
    23  C    0.002865
    24  C    0.075178
    25  C   -0.024051
    26  C    0.000772
    27  C   -0.020209
    28  C   -0.022387
    29  C    0.052713
    30  C   -0.016842
    31  C   -0.033749
    32  C   -0.008102
    33  C   -0.028618
    34  C   -0.022198
    35  C    0.039874
    36  C    0.041594
    37  C    0.045311
    38  C    0.069130
    39  C    0.042349
    40  C    0.003188
    41  C    0.077156
    42  C    0.119454
    43  C   -0.028532
    44  C    0.042223
    45  C    0.119407
    46  C    0.078134
    47  C    0.040079
    48  C    0.063901
    49  C   -0.021767
    50  C   -0.013378
    51  C    0.004739
    52  C    0.076061
    53  C   -0.002193
    54  C    0.076924
    55  C   -0.041661
    56  C   -0.360294
    57  C    0.040133
    58  C    0.076872
    59  C    0.047595
    60  C   -0.000474
    61  C   -0.017863
    62  C    0.015848
    63  C   -0.027350
    64  C    0.042769
    65  C   -0.031463
    66  C    0.046960
    67  C    0.052372
    68  C    0.045825
    69  C   -0.021606
    70  C   -0.025370
    71  C   -0.009842
    72  C    0.003154
    73  C   -0.008395
    74  C   -0.008146
    75  C   -0.002173
    76  C    0.000669
    77  C   -0.023196
    78  C   -0.043296
    79  C    0.015124
    80  C   -0.363085
    81  C    0.006210
    82  C    0.072711
    83  C    0.070612
    84  C    0.119220
    85  Cl  -0.015559
    86  Cl  -0.012111
    87  Cl  -0.019919
    88  Cl  -0.017595
 Sum of Mulliken charges =  -0.00000

 Dipole moment (field-independent basis, Debye):
    X=              2.3390    Y=             -4.2681    Z=              0.7521  Tot=              4.9247
 Quadrupole moment (field-independent basis, Debye-Ang):
   XX=           -527.4610   YY=           -522.7765   ZZ=           -498.1403
   XY=             -1.3166   XZ=             -3.5580   YZ=             -1.9034

 Normal termination of Gaussian 16 at Wed Jun 29 13:52:21 2022.
