 Gaussian 16, Revision A.03,
 Gaussian 16:  ES64L-G16RevA.03 25-Dec-2016

 ------------------------------------------------
 #P opt b3lyp/6-31G(d, p) empiricaldispersion=GD3
 ------------------------------------------------

 -----
 force
 -----
 Symbolic Z-matrix:
 Charge =  0 Multiplicity = 1

 SCF Done:  E(RB3LYP) =  -5041.78167059     A.U. after   26 cycles
 SCF Done:  E(RB3LYP) =  -5041.79779266     A.U. after   19 cycles
 SCF Done:  E(RB3LYP) =  -5041.79856761     A.U. after   18 cycles
 SCF Done:  E(RB3LYP) =  -5041.79870972     A.U. after   15 cycles
 SCF Done:  E(RB3LYP) =  -5041.79872300     A.U. after   13 cycles
 Optimization completed.
    -- Stationary point found.

                         Input orientation:
 ---------------------------------------------------------------------
 Center     Atomic      Atomic             Coordinates (Angstroms)
 Number     Number       Type             X           Y           Z
 ---------------------------------------------------------------------
      1          6           0       -0.581996   -4.187950    1.062686
      2          6           0        2.656284   -2.483916   -1.781110
      3          6           0       -1.699949    3.704537    1.613391
      4          6           0        1.961271    3.214121   -1.206295
      5          6           0       -1.453600   -3.956999   -0.044734
      6          6           0        2.625686   -3.123179   -0.417489
      7          6           0       -2.409090    3.725073    0.349218
      8          6           0        1.735993    3.517359    0.257859
      9          6           0       -0.864916   -3.672116   -1.345499
     10          6           0        3.153578   -2.518875    0.687056
     11          6           0        2.386592    2.824729    1.244351
     12          6           0       -1.735328    3.693716   -0.886477
     13          6           0        0.571966   -3.646126   -1.434928
     14          6           0       -0.307624    3.855033   -0.812296
     15          6           0        1.427121   -3.903509   -0.292773
     16          6           0        0.401034    3.945302    0.461401
     17          6           0        0.857091   -4.157910    0.933658
     18          6           0       -0.275406    3.753965    1.687200
     19          6           0        1.411387   -3.530903    2.105841
     20          6           0        0.403672    3.004049    2.731972
     21          6           0        0.322952   -3.149537    2.962673
     22          6           0       -0.373690    2.215929    3.626733
     23          6           0       -0.889203   -3.691034    2.368620
     24          6           0       -1.803462    2.158792    3.499323
     25          6           0       -2.113064   -3.095356    2.620445
     26          6           0       -2.452258    2.903388    2.521050
     27          6           0       -3.095643   -3.019383    1.583510
     28          6           0       -3.601652    2.354426    1.825423
     29          6           0       -2.781741   -3.445416    0.259077
     30          6           0       -3.627457    2.979642    0.530768
     31          6           0       -3.521406   -2.841573   -0.773503
     32          6           0       -4.195413    2.334696   -0.537820
     33          6           0       -2.982040   -2.679377   -2.094563
     34          6           0       -3.598103    2.412626   -1.855654
     35          6           0       -1.608216   -2.957759   -2.359818
     36          6           0       -2.307518    2.986238   -2.027085
     37          6           0       -0.905826   -2.107509   -3.319741
     38          6           0       -1.414153    2.405502   -3.027296
     39          6           0        0.542934   -1.973185   -3.217504
     40          6           0        2.250958   -0.233083   -2.681301
     41          6           0        2.082570    1.158656   -2.550423
     42          6           0        0.039221    2.556819   -2.859668
     43          6           0        1.249508   -2.801434   -2.307895
     44          6           0        2.871163   -0.982399   -1.688408
     45          6           0        2.520102    1.819177   -1.407228
     46          6           0        0.541753    3.339438   -1.773151
     47          6           0        3.356811   -0.322183   -0.533421
     48          6           0        3.170398    1.077825   -0.391183
     49          6           0        3.847611   -1.166193    0.649560
     50          6           0        3.434700    1.759755    0.953666
     51          6           0        3.379784   -0.552604    1.957697
     52          6           0        3.190442    0.786796    2.087299
     53          6           0        2.510497   -2.696211    1.963494
     54          6           0        1.721089    2.546909    2.472901
     55          6           0        2.561194   -1.466879    2.694196
     56          6           0        2.181519    1.273235    2.964688
     57          6           0        0.306321   -1.908815    3.640264
     58          6           0        0.059156    0.921191    4.052597
     59          6           0       -1.006849   -1.313315    3.934454
     60          6           0       -1.095844    0.071988    4.176727
     61          6           0       -2.195393   -1.935953    3.449386
     62          6           0       -2.258855    0.836353    3.797487
     63          6           0       -3.305967   -1.160160    2.962462
     64          6           0       -3.325694    0.247380    3.056252
     65          6           0       -3.870282   -1.838604    1.822985
     66          6           0       -4.008642    1.016835    2.003648
     67          6           0       -4.501401   -1.138006    0.766330
     68          6           0       -4.617138    0.319778    0.857808
     69          6           0       -4.449533   -1.761159   -0.510067
     70          6           0       -4.780274    1.029751   -0.355883
     71          6           0       -4.556847   -0.995834   -1.716186
     72          6           0       -4.727894    0.375215   -1.645503
     73          6           0       -3.659779   -1.572886   -2.703449
     74          6           0       -4.001510    1.237081   -2.564288
     75          6           0       -2.990254   -0.747256   -3.590812
     76          6           0       -3.160959    0.685852   -3.523399
     77          6           0       -1.612401   -1.028455   -3.922005
     78          6           0       -1.877959    1.293336   -3.778209
     79          6           0        1.154274   -0.742843   -3.523895
     80          6           0        0.900946    1.560271   -3.335014
     81          6           0       -0.978109    0.232713   -4.174928
     82          6           0        0.387771    0.374704   -3.945177
     83          6           0        1.476196   -1.036541    3.508679
     84          6           0        1.326086    0.393994    3.684773
     85         17           0        3.956726   -3.238117   -2.878217
     86         17           0        5.684136   -1.351715    0.563613
     87         17           0        5.136576    2.471997    0.979543
     88         17           0        3.082339    4.460746   -2.008539
 ---------------------------------------------------------------------

 The electronic state is 1-A.
 Alpha  occ. eigenvalues -- -101.55130-101.55033-101.54994-101.54880 -10.30419
 Alpha  occ. eigenvalues --  -10.30273 -10.30260 -10.30130 -10.25793 -10.25622
 Alpha  occ. eigenvalues --  -10.25572 -10.25536 -10.25525 -10.25515 -10.25474
 Alpha  occ. eigenvalues --  -10.25401 -10.25388 -10.25337 -10.25278 -10.25273
 Alpha  occ. eigenvalues --  -10.25233 -10.25199 -10.25184 -10.25166 -10.25084
 Alpha  occ. eigenvalues --  -10.25064 -10.25031 -10.25003 -10.24997 -10.24957
 Alpha  occ. eigenvalues --  -10.24863 -10.24842 -10.24733 -10.24712 -10.24656
 Alpha  occ. eigenvalues --  -10.24639 -10.24589 -10.24588 -10.24560 -10.24527
 Alpha  occ. eigenvalues --  -10.24514 -10.24488 -10.24430 -10.24407 -10.24369
 Alpha  occ. eigenvalues --  -10.24362 -10.24345 -10.24218 -10.24162 -10.24100
 Alpha  occ. eigenvalues --  -10.24099 -10.24072 -10.24066 -10.24065 -10.24051
 Alpha  occ. eigenvalues --  -10.24044 -10.24033 -10.24026 -10.23969 -10.23943
 Alpha  occ. eigenvalues --  -10.23894 -10.23806 -10.23770 -10.23659 -10.23577
 Alpha  occ. eigenvalues --  -10.23563 -10.23521 -10.23493 -10.23392 -10.23376
 Alpha  occ. eigenvalues --  -10.23350 -10.23286 -10.23275 -10.23222 -10.23212
 Alpha  occ. eigenvalues --  -10.23138 -10.23088 -10.23029 -10.22970 -10.22872
 Alpha  occ. eigenvalues --  -10.22691 -10.22683 -10.22608 -10.22546 -10.22307
 Alpha  occ. eigenvalues --  -10.22253 -10.22242 -10.22101  -9.46656  -9.46570
 Alpha  occ. eigenvalues --   -9.46528  -9.46420  -7.23097  -7.23000  -7.22978
 Alpha  occ. eigenvalues --   -7.22863  -7.22058  -7.22052  -7.21975  -7.21973
 Alpha  occ. eigenvalues --   -7.21926  -7.21916  -7.21819  -7.21813  -0.98017
 Alpha  occ. eigenvalues --   -0.96911  -0.96520  -0.96181  -0.94589  -0.94392
 Alpha  occ. eigenvalues --   -0.93905  -0.93462  -0.93033  -0.91408  -0.91097
 Alpha  occ. eigenvalues --   -0.90461  -0.89657  -0.89107  -0.89037  -0.88741
 Alpha  occ. eigenvalues --   -0.87648  -0.86493  -0.85505  -0.85008  -0.84763
 Alpha  occ. eigenvalues --   -0.84467  -0.84346  -0.84151  -0.83783  -0.83047
 Alpha  occ. eigenvalues --   -0.82076  -0.81578  -0.81209  -0.79819  -0.79734
 Alpha  occ. eigenvalues --   -0.79107  -0.78887  -0.78475  -0.78307  -0.77646
 Alpha  occ. eigenvalues --   -0.77381  -0.77100  -0.76774  -0.75370  -0.73924
 Alpha  occ. eigenvalues --   -0.73610  -0.73245  -0.72637  -0.71831  -0.71730
 Alpha  occ. eigenvalues --   -0.71507  -0.70755  -0.70114  -0.69196  -0.68919
 Alpha  occ. eigenvalues --   -0.67624  -0.67202  -0.66194  -0.66001  -0.65348
 Alpha  occ. eigenvalues --   -0.65285  -0.64695  -0.64505  -0.63732  -0.63308
 Alpha  occ. eigenvalues --   -0.62441  -0.62145  -0.61782  -0.60474  -0.59703
 Alpha  occ. eigenvalues --   -0.59546  -0.58812  -0.58235  -0.58143  -0.57697
 Alpha  occ. eigenvalues --   -0.57343  -0.56976  -0.55759  -0.55068  -0.54458
 Alpha  occ. eigenvalues --   -0.53864  -0.53486  -0.53437  -0.52984  -0.52781
 Alpha  occ. eigenvalues --   -0.52283  -0.52150  -0.51665  -0.51271  -0.50255
 Alpha  occ. eigenvalues --   -0.50203  -0.49609  -0.49429  -0.49160  -0.48855
 Alpha  occ. eigenvalues --   -0.48849  -0.48535  -0.48322  -0.48183  -0.47842
 Alpha  occ. eigenvalues --   -0.47581  -0.47182  -0.47040  -0.46808  -0.46648
 Alpha  occ. eigenvalues --   -0.46127  -0.45848  -0.45844  -0.45707  -0.45534
 Alpha  occ. eigenvalues --   -0.45061  -0.44984  -0.44774  -0.44586  -0.44341
 Alpha  occ. eigenvalues --   -0.44196  -0.43971  -0.43831  -0.43706  -0.43532
 Alpha  occ. eigenvalues --   -0.43352  -0.43090  -0.42868  -0.42605  -0.42275
 Alpha  occ. eigenvalues --   -0.41891  -0.41699  -0.41581  -0.41299  -0.41070
 Alpha  occ. eigenvalues --   -0.40826  -0.40740  -0.40402  -0.40180  -0.39853
 Alpha  occ. eigenvalues --   -0.39449  -0.39372  -0.39299  -0.39111  -0.39064
 Alpha  occ. eigenvalues --   -0.38783  -0.37886  -0.37701  -0.37501  -0.36902
 Alpha  occ. eigenvalues --   -0.36542  -0.36440  -0.35938  -0.35660  -0.35545
 Alpha  occ. eigenvalues --   -0.35365  -0.35199  -0.35071  -0.34901  -0.34198
 Alpha  occ. eigenvalues --   -0.34128  -0.34037  -0.33699  -0.33132  -0.33124
 Alpha  occ. eigenvalues --   -0.32080  -0.31962  -0.31599  -0.31411  -0.31183
 Alpha  occ. eigenvalues --   -0.31067  -0.30735  -0.30546  -0.30322  -0.30223
 Alpha  occ. eigenvalues --   -0.29414  -0.28258  -0.28088  -0.27706  -0.27544
 Alpha  occ. eigenvalues --   -0.27347  -0.27181  -0.26458  -0.25285  -0.25189
 Alpha  occ. eigenvalues --   -0.24743  -0.23804  -0.23529  -0.22890  -0.21051
 Alpha  occ. eigenvalues --   -0.19113
 Alpha virt. eigenvalues --   -0.16598  -0.13478  -0.11991  -0.10573  -0.10073
 Alpha virt. eigenvalues --   -0.09696  -0.08455  -0.06767  -0.06474  -0.06160
 Alpha virt. eigenvalues --   -0.06140  -0.05527  -0.05182  -0.04894  -0.04391

 Mulliken charges:
               1
     1  C   -0.016869
     2  C   -0.361238
     3  C   -0.014181
     4  C   -0.366986
     5  C    0.046198
     6  C    0.090488
     7  C   -0.021847
     8  C    0.085710
     9  C    0.032548
    10  C    0.096423
    11  C    0.091106
    12  C    0.057189
    13  C    0.017427
    14  C    0.015077
    15  C    0.020960
    16  C    0.002284
    17  C   -0.017041
    18  C    0.048315
    19  C   -0.015540
    20  C    0.047336
    21  C   -0.028513
    22  C   -0.023861
    23  C   -0.002671
    24  C   -0.018929
    25  C   -0.020422
    26  C   -0.001327
    27  C   -0.023197
    28  C   -0.026795
    29  C    0.047824
    30  C   -0.020118
    31  C   -0.030991
    32  C   -0.004570
    33  C   -0.029435
    34  C   -0.021452
    35  C    0.034160
    36  C    0.039431
    37  C    0.045019
    38  C    0.044653
    39  C    0.064592
    40  C    0.010035
    41  C    0.010162
    42  C    0.071194
    43  C    0.051509
    44  C    0.126424
    45  C    0.129197
    46  C    0.049287
    47  C    0.122733
    48  C    0.127138
    49  C   -0.373266
    50  C   -0.377002
    51  C    0.087762
    52  C    0.087591
    53  C    0.024105
    54  C    0.002206
    55  C    0.004846
    56  C    0.006954
    57  C    0.052315
    58  C   -0.029025
    59  C    0.061193
    60  C   -0.039642
    61  C   -0.030950
    62  C   -0.031836
    63  C   -0.037708
    64  C    0.061694
    65  C   -0.031187
    66  C    0.050315
    67  C    0.052473
    68  C    0.044850
    69  C   -0.022189
    70  C   -0.022632
    71  C   -0.008893
    72  C    0.002624
    73  C   -0.007591
    74  C   -0.002325
    75  C   -0.000968
    76  C   -0.009212
    77  C   -0.021993
    78  C   -0.022257
    79  C   -0.022627
    80  C   -0.037196
    81  C   -0.014193
    82  C   -0.005888
    83  C    0.030438
    84  C    0.048435
    85  Cl  -0.018568
    86  Cl  -0.001188
    87  Cl   0.004382
    88  Cl  -0.012282
 Sum of Mulliken charges =  -0.00000

 Dipole moment (field-independent basis, Debye):
    X=             -4.8800    Y=             -0.4381    Z=              0.4013  Tot=              4.9160
 Quadrupole moment (field-independent basis, Debye-Ang):
   XX=           -531.5577   YY=           -506.9535   ZZ=           -506.4528
   XY=             -5.6677   XZ=              6.6057   YZ=             -0.3452

 Normal termination of Gaussian 16 at Mon Jun 27 22:04:38 2022.
