 Gaussian 16, Revision A.03,
 Gaussian 16:  ES64L-G16RevA.03 25-Dec-2016

 ------------------------------------------------
 #P opt b3lyp/6-31G(d, p) empiricaldispersion=GD3
 ------------------------------------------------

 -----
 force
 -----
 Symbolic Z-matrix:
 Charge =  0 Multiplicity = 1

 SCF Done:  E(RB3LYP) =  -5041.78897297     A.U. after   24 cycles
 SCF Done:  E(RB3LYP) =  -5041.80319620     A.U. after   16 cycles
 SCF Done:  E(RB3LYP) =  -5041.80364705     A.U. after   14 cycles
 SCF Done:  E(RB3LYP) =  -5041.80375119     A.U. after   12 cycles
 SCF Done:  E(RB3LYP) =  -5041.80376197     A.U. after   10 cycles
 Optimization completed.
    -- Stationary point found.

                         Input orientation:
 ---------------------------------------------------------------------
 Center     Atomic      Atomic             Coordinates (Angstroms)
 Number     Number       Type             X           Y           Z
 ---------------------------------------------------------------------
      1          6           0        3.856406   -0.038279   -2.668784
      2          6           0       -0.233437    1.329782   -3.833400
      3          6           0       -0.403583    0.146703    4.131764
      4          6           0       -3.311888    1.727150    0.850006
      5          6           0        3.251515   -1.322272   -2.701946
      6          6           0        1.028322    1.989497   -3.842635
      7          6           0       -1.037071   -1.106595    3.794564
      8          6           0       -2.404876    2.322781    1.906361
      9          6           0        1.967828   -1.469783   -3.393789
     10          6           0        1.224021    3.098390   -3.022020
     11          6           0       -1.513644    3.321684    1.621916
     12          6           0       -2.102171   -1.169709    2.860945
     13          6           0        1.415835   -0.319546   -4.019259
     14          6           0       -2.645146    0.079691    2.459342
     15          6           0        2.057096    0.970398   -3.962370
     16          6           0       -2.079056    1.347516    2.881715
     17          6           0        3.246158    1.107329   -3.278403
     18          6           0       -0.878022    1.394614    3.630753
     19          6           0        3.464169    2.267710   -2.417911
     20          6           0        0.084152    2.435169    3.305251
     21          6           0        4.192734    1.836625   -1.263552
     22          6           0        1.470178    2.159674    3.459216
     23          6           0        4.541916    0.441171   -1.486925
     24          6           0        1.909913    0.878699    3.920004
     25          6           0        4.760477   -0.397757   -0.423907
     26          6           0        0.996205   -0.102433    4.274391
     27          6           0        4.328327   -1.766067   -0.492277
     28          6           0        1.258065   -1.497334    3.958513
     29          6           0        3.582169   -2.235966   -1.612189
     30          6           0       -0.029756   -2.121105    3.795647
     31          6           0        2.743000   -3.335030   -1.368809
     32          6           0       -0.171008   -3.223357    2.977333
     33          6           0        1.520371   -3.531377   -2.120133
     34          6           0       -1.325887   -3.389741    2.140608
     35          6           0        1.052928   -2.545066   -3.026711
     36          6           0       -2.236357   -2.303883    1.961350
     37          6           0       -0.392084   -2.346288   -3.124049
     38          6           0       -2.865035   -2.105658    0.676575
     39          6           0       -0.902634   -1.064022   -3.546820
     40          6           0       -2.254143    0.816184   -2.635400
     41          6           0       -3.014332    0.914589   -1.465316
     42          6           0       -3.340076   -0.831583    0.309581
     43          6           0        0.004064   -0.082902   -4.013096
     44          6           0       -1.282826    1.783688   -2.983610
     45          6           0       -2.772075    1.948266   -0.550348
     46          6           0       -3.265210    0.238355    1.218060
     47          6           0       -1.080079    2.906079   -2.088425
     48          6           0       -1.827405    2.951074   -0.859669
     49          6           0        0.173660    3.604203   -2.192869
     50          6           0       -1.393189    3.928365    0.233151
     51          6           0        0.789999    4.146034   -1.010103
     52          6           0        0.091741    4.215435    0.168224
     53          6           0        2.482107    3.234646   -2.296316
     54          6           0       -0.261634    3.369698    2.293851
     55          6           0        2.198514    3.795809   -1.008502
     56          6           0        0.731096    3.882594    1.377698
     57          6           0        3.887310    2.315073    0.034709
     58          6           0        2.442232    2.619128    2.500970
     59          6           0        4.158111    1.417472    1.164799
     60          6           0        3.468947    1.607552    2.377069
     61          6           0        4.612173    0.086615    0.920032
     62          6           0        3.117268    0.507296    3.230864
     63          6           0        4.166514   -1.018741    1.709036
     64          6           0        3.347635   -0.841872    2.843762
     65          6           0        4.003252   -2.168456    0.838120
     66          6           0        2.361944   -1.885427    3.178707
     67          6           0        3.048572   -3.175282    1.099452
     68          6           0        2.218907   -3.068354    2.304975
     69          6           0        2.547926   -3.860204   -0.044236
     70          6           0        0.986590   -3.757118    2.300376
     71          6           0        1.260048   -4.498191   -0.023018
     72          6           0        0.491924   -4.448422    1.124475
     73          6           0        0.636111   -4.307739   -1.310605
     74          6           0       -0.938586   -4.231106    1.033423
     75          6           0       -0.740355   -4.087195   -1.370842
     76          6           0       -1.545461   -4.093701   -0.196460
     77          6           0       -1.258470   -3.124364   -2.300064
     78          6           0       -2.755489   -3.203086   -0.390494
     79          6           0       -2.113528   -0.581820   -2.992454
     80          6           0       -3.629188   -0.448887   -1.130928
     81          6           0       -2.471605   -2.603426   -1.762758
     82          6           0       -2.888424   -1.348747   -2.095399
     83          6           0        2.845916    3.337936    0.164443
     84          6           0        2.095927    3.442811    1.415145
     85         17           0       -5.034028    2.390035    0.992041
     86         17           0       -5.450196   -0.461545   -1.446563
     87         17           0       -2.392931    5.491436    0.104760
     88         17           0       -4.331037   -4.196017   -0.398605
 ---------------------------------------------------------------------

 The electronic state is 1-A.
 Alpha  occ. eigenvalues -- -101.55024-101.55023-101.54828-101.54822 -10.30363
 Alpha  occ. eigenvalues --  -10.30300 -10.30149 -10.29853 -10.25742 -10.25720
 Alpha  occ. eigenvalues --  -10.25670 -10.25548 -10.25496 -10.25392 -10.25349
 Alpha  occ. eigenvalues --  -10.25250 -10.25210 -10.25191 -10.25173 -10.25135
 Alpha  occ. eigenvalues --  -10.25122 -10.25064 -10.25062 -10.25052 -10.24873
 Alpha  occ. eigenvalues --  -10.24795 -10.24724 -10.24675 -10.24649 -10.24642
 Alpha  occ. eigenvalues --  -10.24622 -10.24607 -10.24558 -10.24550 -10.24504
 Alpha  occ. eigenvalues --  -10.24496 -10.24487 -10.24483 -10.24458 -10.24436
 Alpha  occ. eigenvalues --  -10.24366 -10.24346 -10.24289 -10.24222 -10.24206
 Alpha  occ. eigenvalues --  -10.24205 -10.24204 -10.24153 -10.24126 -10.24092
 Alpha  occ. eigenvalues --  -10.24062 -10.24039 -10.24031 -10.24016 -10.23989
 Alpha  occ. eigenvalues --  -10.23985 -10.23965 -10.23964 -10.23923 -10.23847
 Alpha  occ. eigenvalues --  -10.23841 -10.23833 -10.23822 -10.23726 -10.23696
 Alpha  occ. eigenvalues --  -10.23681 -10.23638 -10.23599 -10.23583 -10.23540
 Alpha  occ. eigenvalues --  -10.23479 -10.23479 -10.23353 -10.23296 -10.23276
 Alpha  occ. eigenvalues --  -10.23227 -10.23220 -10.23211 -10.23210 -10.23100
 Alpha  occ. eigenvalues --  -10.23073 -10.22991 -10.22986 -10.22944 -10.22889
 Alpha  occ. eigenvalues --  -10.22859 -10.22794 -10.22493  -9.46552  -9.46549
 Alpha  occ. eigenvalues --   -9.46364  -9.46353  -7.23003  -7.23001  -7.22798
 Alpha  occ. eigenvalues --   -7.22790  -7.21953  -7.21952  -7.21937  -7.21933
 Alpha  occ. eigenvalues --   -7.21770  -7.21761  -7.21758  -7.21750  -0.97938
 Alpha  occ. eigenvalues --   -0.96668  -0.96556  -0.96373  -0.94488  -0.94263
 Alpha  occ. eigenvalues --   -0.94096  -0.93452  -0.93086  -0.91159  -0.90923
 Alpha  occ. eigenvalues --   -0.90720  -0.89782  -0.89278  -0.88924  -0.88871
 Alpha  occ. eigenvalues --   -0.86996  -0.86478  -0.86182  -0.84922  -0.84867
 Alpha  occ. eigenvalues --   -0.84263  -0.84056  -0.83914  -0.83793  -0.82728
 Alpha  occ. eigenvalues --   -0.82121  -0.81701  -0.81450  -0.79808  -0.79634
 Alpha  occ. eigenvalues --   -0.79233  -0.78703  -0.78515  -0.78370  -0.77899
 Alpha  occ. eigenvalues --   -0.77294  -0.76916  -0.76542  -0.75473  -0.73807
 Alpha  occ. eigenvalues --   -0.73386  -0.73061  -0.73003  -0.71985  -0.71731
 Alpha  occ. eigenvalues --   -0.71495  -0.70815  -0.70083  -0.69217  -0.68991
 Alpha  occ. eigenvalues --   -0.67565  -0.67068  -0.66030  -0.65844  -0.65355
 Alpha  occ. eigenvalues --   -0.65160  -0.64867  -0.64531  -0.63988  -0.63318
 Alpha  occ. eigenvalues --   -0.62501  -0.62204  -0.61821  -0.60560  -0.59733
 Alpha  occ. eigenvalues --   -0.59401  -0.58512  -0.58175  -0.58082  -0.57596
 Alpha  occ. eigenvalues --   -0.57290  -0.57043  -0.55790  -0.55180  -0.54603
 Alpha  occ. eigenvalues --   -0.53878  -0.53656  -0.53221  -0.53040  -0.52894
 Alpha  occ. eigenvalues --   -0.52314  -0.52104  -0.51672  -0.51144  -0.50129
 Alpha  occ. eigenvalues --   -0.49871  -0.49556  -0.49300  -0.49172  -0.48980
 Alpha  occ. eigenvalues --   -0.48751  -0.48523  -0.48266  -0.47992  -0.47731
 Alpha  occ. eigenvalues --   -0.47654  -0.47356  -0.47228  -0.47035  -0.46779
 Alpha  occ. eigenvalues --   -0.46183  -0.46021  -0.45551  -0.45386  -0.45242
 Alpha  occ. eigenvalues --   -0.45063  -0.45028  -0.44744  -0.44605  -0.44456
 Alpha  occ. eigenvalues --   -0.44187  -0.44053  -0.43955  -0.43784  -0.43413
 Alpha  occ. eigenvalues --   -0.43249  -0.43113  -0.42850  -0.42607  -0.42147
 Alpha  occ. eigenvalues --   -0.41959  -0.41717  -0.41356  -0.41256  -0.40911
 Alpha  occ. eigenvalues --   -0.40725  -0.40645  -0.40506  -0.40392  -0.40064
 Alpha  occ. eigenvalues --   -0.39656  -0.39410  -0.39288  -0.39191  -0.39072
 Alpha  occ. eigenvalues --   -0.38744  -0.38005  -0.37285  -0.37203  -0.36722
 Alpha  occ. eigenvalues --   -0.36616  -0.36377  -0.36225  -0.35835  -0.35656
 Alpha  occ. eigenvalues --   -0.35514  -0.35228  -0.35106  -0.34977  -0.34613
 Alpha  occ. eigenvalues --   -0.33907  -0.33764  -0.33646  -0.33464  -0.32519
 Alpha  occ. eigenvalues --   -0.31990  -0.31792  -0.31371  -0.31130  -0.31033
 Alpha  occ. eigenvalues --   -0.30952  -0.30792  -0.30510  -0.30449  -0.30189
 Alpha  occ. eigenvalues --   -0.29918  -0.28146  -0.27918  -0.27756  -0.27588
 Alpha  occ. eigenvalues --   -0.27440  -0.27315  -0.26818  -0.25357  -0.25207
 Alpha  occ. eigenvalues --   -0.24455  -0.23504  -0.23340  -0.22148  -0.21547
 Alpha  occ. eigenvalues --   -0.19605
 Alpha virt. eigenvalues --   -0.15965  -0.13740  -0.12357  -0.10624  -0.09674
 Alpha virt. eigenvalues --   -0.09315  -0.08644  -0.07201  -0.06461  -0.06147
 Alpha virt. eigenvalues --   -0.06095  -0.05580  -0.05180  -0.05093  -0.04320

 Mulliken charges:
               1
     1  C   -0.024322
     2  C   -0.020029
     3  C   -0.015681
     4  C   -0.380548
     5  C    0.045432
     6  C   -0.013384
     7  C   -0.016607
     8  C    0.088215
     9  C    0.037800
    10  C    0.013354
    11  C    0.091158
    12  C    0.050003
    13  C   -0.026957
    14  C    0.008893
    15  C   -0.010308
    16  C    0.006666
    17  C    0.003202
    18  C    0.050258
    19  C   -0.001020
    20  C    0.044958
    21  C   -0.025358
    22  C   -0.018692
    23  C    0.001227
    24  C   -0.014141
    25  C   -0.024622
    26  C   -0.006195
    27  C   -0.020453
    28  C   -0.028287
    29  C    0.051586
    30  C   -0.023024
    31  C   -0.036075
    32  C   -0.000242
    33  C   -0.023120
    34  C   -0.038185
    35  C    0.044016
    36  C    0.068973
    37  C    0.034707
    38  C    0.095074
    39  C    0.044298
    40  C    0.005964
    41  C    0.073825
    42  C    0.154033
    43  C   -0.027347
    44  C    0.045457
    45  C    0.150484
    46  C    0.077340
    47  C    0.071097
    48  C    0.092443
    49  C   -0.044127
    50  C   -0.361128
    51  C    0.004257
    52  C    0.069707
    53  C   -0.006478
    54  C    0.000392
    55  C   -0.021500
    56  C    0.012340
    57  C    0.045509
    58  C   -0.029586
    59  C    0.058874
    60  C   -0.035107
    61  C   -0.024369
    62  C   -0.026525
    63  C   -0.032061
    64  C    0.055849
    65  C   -0.031097
    66  C    0.054903
    67  C    0.052920
    68  C    0.045577
    69  C   -0.022804
    70  C   -0.022860
    71  C   -0.012580
    72  C    0.004190
    73  C   -0.020381
    74  C    0.012293
    75  C    0.030560
    76  C    0.070275
    77  C   -0.001704
    78  C   -0.356217
    79  C    0.008627
    80  C   -0.380917
    81  C    0.093084
    82  C    0.089038
    83  C    0.041086
    84  C    0.050034
    85  Cl   0.003651
    86  Cl   0.005762
    87  Cl  -0.016980
    88  Cl  -0.018376
 Sum of Mulliken charges =  -0.00000

 Dipole moment (field-independent basis, Debye):
    X=              4.8602    Y=             -1.0578    Z=              0.2777  Tot=              4.9817
 Quadrupole moment (field-independent basis, Debye-Ang):
   XX=           -528.8355   YY=           -519.4571   ZZ=           -496.2763
   XY=              2.9666   XZ=             -3.6113   YZ=             -2.1238

 Normal termination of Gaussian 16 at Wed Jun 29 14:59:41 2022.
