 Gaussian 16, Revision A.03,
 Gaussian 16:  ES64L-G16RevA.03 25-Dec-2016

 ------------------------------------------------
 #P opt b3lyp/6-31G(d, p) empiricaldispersion=GD3
 ------------------------------------------------

 -----
 force
 -----
 Symbolic Z-matrix:
 Charge =  0 Multiplicity = 1

 SCF Done:  E(RB3LYP) =  -5041.81355367     A.U. after   17 cycles
 SCF Done:  E(RB3LYP) =  -5041.82820228     A.U. after   15 cycles
 SCF Done:  E(RB3LYP) =  -5041.82870694     A.U. after   13 cycles
 SCF Done:  E(RB3LYP) =  -5041.82882670     A.U. after   11 cycles
 SCF Done:  E(RB3LYP) =  -5041.82883874     A.U. after    9 cycles
 Optimization completed.
    -- Stationary point found.

                         Input orientation:
 ---------------------------------------------------------------------
 Center     Atomic      Atomic             Coordinates (Angstroms)
 Number     Number       Type             X           Y           Z
 ---------------------------------------------------------------------
      1          6           0       -0.160903    0.858039    4.152140
      2          6           0       -3.366110    1.810582    0.906623
      3          6           0        2.767178   -2.765521   -2.416716
      4          6           0       -1.223334   -0.923148   -3.515676
      5          6           0        0.542755    1.924817    3.543008
      6          6           0       -3.217051    0.893578    2.092722
      7          6           0        3.229634   -1.512519   -2.916033
      8          6           0       -0.802955   -2.290931   -3.260395
      9          6           0       -0.181895    2.787056    2.603590
     10          6           0       -3.414980   -0.452385    2.016037
     11          6           0       -1.421702   -3.026428   -2.295628
     12          6           0        2.361022   -0.592840   -3.572286
     13          6           0       -1.545941    2.509591    2.364793
     14          6           0        1.072351   -1.089034   -3.874070
     15          6           0       -2.228875    1.422161    2.992634
     16          6           0        0.629053   -2.372760   -3.440714
     17          6           0       -1.535216    0.597849    3.868141
     18          6           0        1.427989   -3.197162   -2.604577
     19          6           0       -1.735302   -0.832031    3.782342
     20          6           0        0.768193   -3.941672   -1.532272
     21          6           0       -0.478251   -1.483312    3.993395
     22          6           0        1.480963   -4.186350   -0.324520
     23          6           0        0.469495   -0.439033    4.349138
     24          6           0        2.829941   -3.696290   -0.150820
     25          6           0        1.805857   -0.602818    4.102874
     26          6           0        3.455912   -3.012097   -1.160458
     27          6           0        2.601665    0.516134    3.674547
     28          6           0        4.316113   -1.881931   -0.860565
     29          6           0        1.985475    1.772908    3.392666
     30          6           0        4.247005   -1.027438   -2.004219
     31          6           0        2.656991    2.588403    2.469652
     32          6           0        4.460509    0.321310   -1.872513
     33          6           0        1.940693    3.537402    1.624703
     34          6           0        3.676640    1.274857   -2.641106
     35          6           0        0.525297    3.537222    1.577601
     36          6           0        2.557127    0.856422   -3.396128
     37          6           0       -0.127652    3.828136    0.301713
     38          6           0        1.401168    1.755013   -3.466064
     39          6           0       -1.481168    3.349383    0.071897
     40          6           0       -2.680594    1.760024   -1.454107
     41          6           0       -2.147028    1.085340   -2.574633
     42          6           0        0.074451    1.195865   -3.684355
     43          6           0       -2.163112    2.754079    1.092779
     44          6           0       -3.245532    1.059321   -0.409929
     45          6           0       -2.221617   -0.319208   -2.689188
     46          6           0       -0.079706   -0.199546   -3.918747
     47          6           0       -3.357411   -0.371700   -0.507026
     48          6           0       -2.867271   -1.049842   -1.633454
     49          6           0       -3.796828   -1.164647    0.732494
     50          6           0       -2.714501   -2.574769   -1.630290
     51          6           0       -2.995682   -2.451479    0.856606
     52          6           0       -2.508477   -3.095247   -0.228191
     53          6           0       -2.628987   -1.329850    2.845442
     54          6           0       -0.641774   -3.838316   -1.405036
     55          6           0       -2.287823   -2.504266    2.105963
     56          6           0       -1.284046   -3.828300   -0.127377
     57          6           0       -0.076806   -2.602268    3.224014
     58          6           0        0.848884   -4.107542    0.946969
     59          6           0        1.360533   -2.790565    3.005467
     60          6           0        1.798117   -3.555850    1.906228
     61          6           0        2.282889   -1.803711    3.467083
     62          6           0        3.011367   -3.264983    1.215909
     63          6           0        3.436195   -1.438977    2.711981
     64          6           0        3.795183   -2.112922    1.526664
     65          6           0        3.640659   -0.001243    2.850211
     66          6           0        4.442640   -1.359268    0.449019
     67          6           0        4.220947    0.763975    1.817066
     68          6           0        4.667006    0.082663    0.596178
     69          6           0        3.811347    2.130405    1.756982
     70          6           0        4.758536    0.870611   -0.578561
     71          6           0        3.874263    2.876526    0.526215
     72          6           0        4.337537    2.256746   -0.614742
     73          6           0        2.727747    3.764300    0.465016
     74          6           0        3.678377    2.497901   -1.892272
     75          6           0        2.099399    4.013327   -0.758129
     76          6           0        2.589280    3.349503   -1.960749
     77          6           0        0.687205    4.094802   -0.829683
     78          6           0        1.465677    2.994992   -2.776634
     79          6           0       -2.031165    3.141233   -1.330332
     80          6           0       -1.049681    1.843549   -3.117852
     81          6           0        0.297819    3.578875   -2.151471
     82          6           0       -0.932009    3.038551   -2.359177
     83          6           0       -1.025885   -3.139100    2.246002
     84          6           0       -0.536871   -3.869838    1.087821
     85         17           0       -4.968600    2.734961    0.992691
     86         17           0       -5.617759   -1.476691    0.649037
     87         17           0       -4.173175   -3.356190   -2.466599
     88         17           0       -3.212564    4.499927   -1.778294
 ---------------------------------------------------------------------

 The electronic state is 1-A.
 Alpha  occ. eigenvalues -- -101.54972-101.54884-101.54747-101.54737 -10.30307
 Alpha  occ. eigenvalues --  -10.30171 -10.30090 -10.29863 -10.25838 -10.25488
 Alpha  occ. eigenvalues --  -10.25371 -10.25355 -10.25342 -10.25302 -10.25301
 Alpha  occ. eigenvalues --  -10.25282 -10.25181 -10.25156 -10.25094 -10.25010
 Alpha  occ. eigenvalues --  -10.24983 -10.24911 -10.24847 -10.24800 -10.24764
 Alpha  occ. eigenvalues --  -10.24741 -10.24740 -10.24726 -10.24683 -10.24677
 Alpha  occ. eigenvalues --  -10.24643 -10.24630 -10.24614 -10.24612 -10.24522
 Alpha  occ. eigenvalues --  -10.24505 -10.24435 -10.24421 -10.24407 -10.24361
 Alpha  occ. eigenvalues --  -10.24300 -10.24244 -10.24207 -10.24175 -10.24111
 Alpha  occ. eigenvalues --  -10.24087 -10.24082 -10.24017 -10.24010 -10.24006
 Alpha  occ. eigenvalues --  -10.23976 -10.23959 -10.23905 -10.23891 -10.23864
 Alpha  occ. eigenvalues --  -10.23839 -10.23807 -10.23794 -10.23760 -10.23707
 Alpha  occ. eigenvalues --  -10.23706 -10.23702 -10.23688 -10.23671 -10.23653
 Alpha  occ. eigenvalues --  -10.23636 -10.23633 -10.23526 -10.23522 -10.23520
 Alpha  occ. eigenvalues --  -10.23515 -10.23514 -10.23454 -10.23454 -10.23449
 Alpha  occ. eigenvalues --  -10.23421 -10.23418 -10.23356 -10.23338 -10.23291
 Alpha  occ. eigenvalues --  -10.23270 -10.23234 -10.23130 -10.23129 -10.23123
 Alpha  occ. eigenvalues --  -10.23052 -10.22950 -10.22918  -9.46506  -9.46425
 Alpha  occ. eigenvalues --   -9.46275  -9.46269  -7.22945  -7.22866  -7.22716
 Alpha  occ. eigenvalues --   -7.22712  -7.21911  -7.21901  -7.21828  -7.21815
 Alpha  occ. eigenvalues --   -7.21681  -7.21672  -7.21668  -7.21658  -0.97884
 Alpha  occ. eigenvalues --   -0.96695  -0.96465  -0.96259  -0.94585  -0.94361
 Alpha  occ. eigenvalues --   -0.93744  -0.93402  -0.93104  -0.91328  -0.90969
 Alpha  occ. eigenvalues --   -0.90571  -0.89673  -0.88959  -0.88882  -0.88730
 Alpha  occ. eigenvalues --   -0.87579  -0.86373  -0.85388  -0.84938  -0.84679
 Alpha  occ. eigenvalues --   -0.84521  -0.84379  -0.84124  -0.83700  -0.82973
 Alpha  occ. eigenvalues --   -0.81929  -0.81546  -0.81247  -0.79637  -0.79568
 Alpha  occ. eigenvalues --   -0.79189  -0.78849  -0.78626  -0.78264  -0.77788
 Alpha  occ. eigenvalues --   -0.77225  -0.77043  -0.76749  -0.75344  -0.73791
 Alpha  occ. eigenvalues --   -0.73470  -0.73165  -0.72609  -0.72196  -0.71835
 Alpha  occ. eigenvalues --   -0.71456  -0.70803  -0.70098  -0.69130  -0.68875
 Alpha  occ. eigenvalues --   -0.67538  -0.67183  -0.65986  -0.65902  -0.65280
 Alpha  occ. eigenvalues --   -0.65116  -0.64826  -0.64460  -0.63823  -0.63426
 Alpha  occ. eigenvalues --   -0.62552  -0.62221  -0.61931  -0.60262  -0.59579
 Alpha  occ. eigenvalues --   -0.59468  -0.58582  -0.58145  -0.58114  -0.57651
 Alpha  occ. eigenvalues --   -0.57222  -0.56934  -0.55711  -0.55192  -0.54429
 Alpha  occ. eigenvalues --   -0.53955  -0.53447  -0.53251  -0.52879  -0.52665
 Alpha  occ. eigenvalues --   -0.52224  -0.52128  -0.51764  -0.51134  -0.50314
 Alpha  occ. eigenvalues --   -0.49985  -0.49534  -0.49411  -0.49013  -0.48809
 Alpha  occ. eigenvalues --   -0.48735  -0.48303  -0.48212  -0.48045  -0.47861
 Alpha  occ. eigenvalues --   -0.47581  -0.47409  -0.46979  -0.46836  -0.46673
 Alpha  occ. eigenvalues --   -0.46258  -0.45958  -0.45808  -0.45571  -0.45373
 Alpha  occ. eigenvalues --   -0.44924  -0.44884  -0.44634  -0.44602  -0.44377
 Alpha  occ. eigenvalues --   -0.44132  -0.44045  -0.43927  -0.43824  -0.43521
 Alpha  occ. eigenvalues --   -0.43379  -0.43121  -0.42859  -0.42579  -0.41994
 Alpha  occ. eigenvalues --   -0.41815  -0.41717  -0.41494  -0.41384  -0.41039
 Alpha  occ. eigenvalues --   -0.40950  -0.40482  -0.40301  -0.39955  -0.39796
 Alpha  occ. eigenvalues --   -0.39432  -0.39314  -0.39220  -0.39143  -0.39034
 Alpha  occ. eigenvalues --   -0.38808  -0.37992  -0.37704  -0.37440  -0.36777
 Alpha  occ. eigenvalues --   -0.36485  -0.36375  -0.35840  -0.35650  -0.35560
 Alpha  occ. eigenvalues --   -0.35450  -0.35233  -0.35166  -0.34954  -0.34363
 Alpha  occ. eigenvalues --   -0.34083  -0.33965  -0.33668  -0.33179  -0.32856
 Alpha  occ. eigenvalues --   -0.32059  -0.31909  -0.31635  -0.31198  -0.30952
 Alpha  occ. eigenvalues --   -0.30910  -0.30743  -0.30358  -0.30126  -0.29899
 Alpha  occ. eigenvalues --   -0.29785  -0.27899  -0.27848  -0.27753  -0.27662
 Alpha  occ. eigenvalues --   -0.27494  -0.27095  -0.26817  -0.25420  -0.24983
 Alpha  occ. eigenvalues --   -0.24676  -0.23562  -0.23215  -0.22470  -0.22020
 Alpha  occ. eigenvalues --   -0.21053
 Alpha virt. eigenvalues --   -0.15068  -0.12510  -0.11550  -0.10890  -0.10144
 Alpha virt. eigenvalues --   -0.09723  -0.08546  -0.06939  -0.06460  -0.06359
 Alpha virt. eigenvalues --   -0.05937  -0.05526  -0.05132  -0.04621  -0.04321

 Mulliken charges:
               1
     1  C   -0.025544
     2  C   -0.375231
     3  C   -0.023877
     4  C   -0.038917
     5  C    0.050931
     6  C    0.089652
     7  C   -0.018874
     8  C   -0.005091
     9  C    0.034264
    10  C    0.090768
    11  C    0.078501
    12  C    0.056540
    13  C    0.006097
    14  C   -0.029423
    15  C    0.022605
    16  C   -0.023057
    17  C   -0.014739
    18  C    0.057767
    19  C   -0.015433
    20  C    0.047566
    21  C   -0.024994
    22  C   -0.020378
    23  C   -0.001544
    24  C   -0.019720
    25  C   -0.018824
    26  C    0.000893
    27  C   -0.020647
    28  C   -0.021491
    29  C    0.049174
    30  C   -0.017085
    31  C   -0.031851
    32  C   -0.009371
    33  C   -0.027281
    34  C   -0.025266
    35  C    0.034453
    36  C    0.044658
    37  C    0.070520
    38  C    0.043791
    39  C    0.120724
    40  C    0.082772
    41  C   -0.000268
    42  C    0.045026
    43  C    0.075578
    44  C    0.144189
    45  C    0.080873
    46  C   -0.020013
    47  C    0.121586
    48  C    0.103196
    49  C   -0.371348
    50  C   -0.358087
    51  C    0.088401
    52  C    0.090841
    53  C    0.022639
    54  C    0.007193
    55  C    0.004479
    56  C    0.006235
    57  C    0.049581
    58  C   -0.026634
    59  C    0.054641
    60  C   -0.029983
    61  C   -0.022460
    62  C   -0.020973
    63  C   -0.030234
    64  C    0.053859
    65  C   -0.029307
    66  C    0.046126
    67  C    0.051869
    68  C    0.045323
    69  C   -0.020802
    70  C   -0.023104
    71  C   -0.009998
    72  C    0.004905
    73  C   -0.011263
    74  C   -0.006762
    75  C    0.002536
    76  C   -0.002545
    77  C   -0.046440
    78  C   -0.019927
    79  C   -0.364872
    80  C    0.009483
    81  C    0.004585
    82  C    0.070193
    83  C    0.036271
    84  C    0.045971
    85  Cl  -0.002235
    86  Cl  -0.001355
    87  Cl  -0.009666
    88  Cl  -0.010340
 Sum of Mulliken charges =  -0.00000

 Dipole moment (field-independent basis, Debye):
    X=              5.4490    Y=             -1.1159    Z=              1.0734  Tot=              5.6647
 Quadrupole moment (field-independent basis, Debye-Ang):
   XX=           -528.9389   YY=           -512.7168   ZZ=           -501.4433
   XY=              3.2012   XZ=             -6.3273   YZ=             -1.1181

 Normal termination of Gaussian 16 at Tue Jun 28 19:34:33 2022.
