 Gaussian 16, Revision A.03,
 Gaussian 16:  ES64L-G16RevA.03 25-Dec-2016

 -------------------------------------------------
 #P opt b3lyp/6-311G(d, p) empiricaldispersion=GD3
 -------------------------------------------------

 -----
 force
 -----
 Symbolic Z-matrix:
 Charge =  0 Multiplicity = 1

 SCF Done:  E(RB3LYP) =  -2515.33523955     A.U. after   19 cycles
 SCF Done:  E(RB3LYP) =  -2515.34133858     A.U. after   17 cycles
 SCF Done:  E(RB3LYP) =  -2515.34150902     A.U. after   11 cycles
 SCF Done:  E(RB3LYP) =  -2515.34153148     A.U. after   10 cycles
 Optimization completed.
    -- Stationary point found.

                         Standard orientation:
 ---------------------------------------------------------------------
 Center     Atomic      Atomic             Coordinates (Angstroms)
 Number     Number       Type             X           Y           Z
 ---------------------------------------------------------------------
      1          6           0        3.072535   -2.323130    0.725948
      2          6           0        3.437282   -1.172626    1.416811
      3          6           0        2.624647   -0.714528    2.527675
      4          6           0        1.458592   -1.396904    2.873446
      5          6           0        2.624648    0.714526    2.527675
      6          6           0        3.437282    1.172625    1.416812
      7          6           0       -2.824299   -0.000000    2.405627
      8          6           0        3.900089   -0.000001    0.698322
      9          6           0        3.072536    2.323129    0.725949
     10          6           0       -3.814628    0.000000    1.391600
     11          6           0        1.938918    3.105593    1.168446
     12          6           0        1.155314    2.645753    2.231068
     13          6           0        1.458592    1.396902    2.873446
     14          6           0       -0.276220    2.805793   -2.213699
     15          6           0       -0.276219    2.805792    2.213700
     16          6           0       -0.879795    3.491857   -1.160473
     17          6           0       -2.193840    3.102761   -0.726623
     18          6           0       -0.893195   -1.625799   -2.799834
     19          6           0        0.205806   -0.702700   -3.167638
     20          6           0        0.205806    0.702701   -3.167639
     21          6           0       -3.792842    1.252500    0.702279
     22          6           0       -2.878685    2.114463    1.414987
     23          6           0       -2.208078    1.310801    2.451916
     24          6           0       -0.893193    1.625800    2.799835
     25          6           0        0.205809    0.702700    3.167640
     26          6           0        0.205807   -0.702701    3.167640
     27          6           0       -0.893194   -1.625800    2.799835
     28          6           0       -2.208078   -1.310801    2.451916
     29          6           0       -2.878686   -2.114463    1.414986
     30          6           0       -3.792842   -1.252499    0.702278
     31          6           0       -3.792845   -1.252500   -0.702279
     32          6           0       -2.878684   -2.114461   -1.414986
     33          6           0       -3.814627    0.000001   -1.391598
     34          6           0       -2.193841   -3.102761   -0.726625
     35          6           0       -2.193841   -3.102761    0.726623
     36          6           0       -0.879796   -3.491856    1.160473
     37          6           0       -2.824299    0.000002   -2.405625
     38          6           0       -0.276220   -2.805793    2.213699
     39          6           0        1.155312   -2.645754    2.231067
     40          6           0       -2.208079   -1.310802   -2.451914
     41          6           0        1.938917   -3.105594    1.168445
     42          6           0        1.285730   -3.659976   -0.000001
     43          6           0       -0.087760   -3.849740   -0.000000
     44          6           0       -0.879796   -3.491856   -1.160474
     45          6           0       -0.893195    1.625801   -2.799834
     46          6           0       -2.208078    1.310801   -2.451915
     47          6           0       -0.276221   -2.805792   -2.213700
     48          6           0       -2.878686    2.114464   -1.414985
     49          6           0        1.155311   -2.645753   -2.231067
     50          6           0       -3.792845    1.252502   -0.702278
     51          6           0        1.458590   -1.396902   -2.873446
     52          6           0        2.624646   -0.714527   -2.527676
     53          6           0        2.624646    0.714527   -2.527676
     54          6           0        1.458590    1.396903   -2.873446
     55          6           0        1.155312    2.645754   -2.231068
     56          6           0       -2.193840    3.102761    0.726625
     57          6           0       -0.879795    3.491856    1.160474
     58          6           0       -0.087759    3.849739    0.000000
     59          6           0        1.285731    3.659976   -0.000000
     60          6           0        1.938917    3.105593   -1.168445
     61          6           0        3.072535    2.323129   -0.725950
     62          6           0        3.437282    1.172626   -1.416814
     63          6           0        3.900088   -0.000001   -0.698324
     64          6           0        3.437282   -1.172626   -1.416813
     65          6           0        3.072535   -2.323129   -0.725950
     66          6           0        1.938916   -3.105594   -1.168447
 ---------------------------------------------------------------------

 The electronic state is 1-A.
 Alpha  occ. eigenvalues --  -10.24359 -10.24359 -10.24311 -10.24311 -10.23882
 Alpha  occ. eigenvalues --  -10.23882 -10.23881 -10.23881 -10.23826 -10.23826
 Alpha  occ. eigenvalues --  -10.23826 -10.23826 -10.23035 -10.23035 -10.23035
 Alpha  occ. eigenvalues --  -10.23035 -10.22790 -10.22790 -10.22714 -10.22714
 Alpha  occ. eigenvalues --  -10.22713 -10.22713 -10.22685 -10.22685 -10.22653
 Alpha  occ. eigenvalues --  -10.22653 -10.22618 -10.22614 -10.22611 -10.22585
 Alpha  occ. eigenvalues --  -10.22584 -10.22571 -10.22568 -10.22567 -10.22546
 Alpha  occ. eigenvalues --  -10.22544 -10.22523 -10.22516 -10.22516 -10.22515
 Alpha  occ. eigenvalues --  -10.22512 -10.22512 -10.22491 -10.22491 -10.22491
 Alpha  occ. eigenvalues --  -10.22491 -10.22478 -10.22473 -10.22467 -10.22462
 Alpha  occ. eigenvalues --  -10.22412 -10.22412 -10.22412 -10.22412 -10.22303
 Alpha  occ. eigenvalues --  -10.22302 -10.22301 -10.22301 -10.22238 -10.22238
 Alpha  occ. eigenvalues --  -10.22124 -10.22124 -10.22083 -10.22083 -10.21041
 Alpha  occ. eigenvalues --  -10.21039  -0.98501  -0.97098  -0.97032  -0.95979
 Alpha  occ. eigenvalues --   -0.94125  -0.93739  -0.93394  -0.93032  -0.92152
 Alpha  occ. eigenvalues --   -0.90033  -0.89844  -0.88992  -0.88795  -0.87475
 Alpha  occ. eigenvalues --   -0.85474  -0.85306  -0.83314  -0.82727  -0.82294
 Alpha  occ. eigenvalues --   -0.82286  -0.81446  -0.80632  -0.80344  -0.79495
 Alpha  occ. eigenvalues --   -0.78557  -0.76573  -0.75952  -0.75488  -0.74967
 Alpha  occ. eigenvalues --   -0.74375  -0.74221  -0.74142  -0.74028  -0.72049
 Alpha  occ. eigenvalues --   -0.71111  -0.68178  -0.67827  -0.67560  -0.67104
 Alpha  occ. eigenvalues --   -0.66414  -0.66236  -0.65641  -0.65493  -0.65169
 Alpha  occ. eigenvalues --   -0.63635  -0.63483  -0.62277  -0.60390  -0.59252
 Alpha  occ. eigenvalues --   -0.58977  -0.58703  -0.57739  -0.57663  -0.56027
 Alpha  occ. eigenvalues --   -0.55838  -0.55511  -0.55143  -0.54581  -0.54262
 Alpha  occ. eigenvalues --   -0.53002  -0.52761  -0.51915  -0.51180  -0.50493
 Alpha  occ. eigenvalues --   -0.50463  -0.49616  -0.49321  -0.48761  -0.48541
 Alpha  occ. eigenvalues --   -0.48011  -0.47887  -0.47755  -0.47748  -0.47597
 Alpha  occ. eigenvalues --   -0.47146  -0.46852  -0.46703  -0.45926  -0.45419
 Alpha  occ. eigenvalues --   -0.45405  -0.45142  -0.45027  -0.44582  -0.43938
 Alpha  occ. eigenvalues --   -0.43795  -0.43491  -0.43262  -0.43156  -0.43119
 Alpha  occ. eigenvalues --   -0.42804  -0.42796  -0.42433  -0.42195  -0.41874
 Alpha  occ. eigenvalues --   -0.41643  -0.40947  -0.40598  -0.40552  -0.39082
 Alpha  occ. eigenvalues --   -0.38741  -0.38349  -0.38266  -0.37610  -0.37579
 Alpha  occ. eigenvalues --   -0.37405  -0.37220  -0.36953  -0.36671  -0.36650
 Alpha  occ. eigenvalues --   -0.36386  -0.36158  -0.35918  -0.35745  -0.35387
 Alpha  occ. eigenvalues --   -0.35046  -0.32195  -0.31749  -0.30814  -0.30713
 Alpha  occ. eigenvalues --   -0.30074  -0.30002  -0.28784  -0.28470  -0.28055
 Alpha  occ. eigenvalues --   -0.25664  -0.25101  -0.24688  -0.24353  -0.24283
 Alpha  occ. eigenvalues --   -0.23871  -0.23711  -0.21340
 Alpha virt. eigenvalues --   -0.14638  -0.13925  -0.12320  -0.11442  -0.10516
 Alpha virt. eigenvalues --   -0.10093  -0.08504  -0.05829  -0.05749  -0.05069
 Alpha virt. eigenvalues --   -0.04678  -0.04428  -0.04140  -0.04113  -0.02272

 Mulliken charges:
               1
     1  C   -0.002331
     2  C    0.000309
     3  C   -0.003865
     4  C   -0.005882
     5  C   -0.003865
     6  C    0.000309
     7  C   -0.003104
     8  C   -0.000820
     9  C   -0.002331
    10  C   -0.037974
    11  C    0.007632
    12  C   -0.000963
    13  C   -0.005882
    14  C   -0.002309
    15  C   -0.002309
    16  C    0.002502
    17  C   -0.001537
    18  C    0.002011
    19  C    0.010806
    20  C    0.010805
    21  C    0.012398
    22  C   -0.009430
    23  C    0.016168
    24  C    0.002011
    25  C    0.010806
    26  C    0.010805
    27  C    0.002012
    28  C    0.016168
    29  C   -0.009430
    30  C    0.012398
    31  C    0.012397
    32  C   -0.009429
    33  C   -0.037971
    34  C   -0.001537
    35  C   -0.001538
    36  C    0.002502
    37  C   -0.003102
    38  C   -0.002309
    39  C   -0.000963
    40  C    0.016169
    41  C    0.007633
    42  C   -0.009979
    43  C    0.000855
    44  C    0.002501
    45  C    0.002012
    46  C    0.016168
    47  C   -0.002308
    48  C   -0.009429
    49  C   -0.000963
    50  C    0.012397
    51  C   -0.005882
    52  C   -0.003865
    53  C   -0.003865
    54  C   -0.005881
    55  C   -0.000963
    56  C   -0.001538
    57  C    0.002502
    58  C    0.000854
    59  C   -0.009978
    60  C    0.007633
    61  C   -0.002331
    62  C    0.000309
    63  C   -0.000820
    64  C    0.000309
    65  C   -0.002331
    66  C    0.007633
 Sum of Mulliken charges =  -0.00000

 Dipole moment (field-independent basis, Debye):
    X=             -0.0375    Y=             -0.0000    Z=             -0.0001  Tot=              0.0375
 Quadrupole moment (field-independent basis, Debye-Ang):
   XX=           -372.0445   YY=           -367.0052   ZZ=           -367.3967
   XY=              0.0000   XZ=              0.0002   YZ=              0.0000

 Normal termination of Gaussian 16 at Thu Jul 21 23:21:41 2022.
