 Gaussian 16, Revision A.03,
 Gaussian 16:  ES64L-G16RevA.03 25-Dec-2016

 -------------------------------------------------
 #P opt b3lyp/6-311G(d, p) empiricaldispersion=GD3
 -------------------------------------------------

 -----
 force
 -----
 Symbolic Z-matrix:
 Charge =  0 Multiplicity = 2

 SCF Done:  E(UB3LYP) =  -2975.57498585     A.U. after   29 cycles
 SCF Done:  E(UB3LYP) =  -2975.58634950     A.U. after   25 cycles
 SCF Done:  E(UB3LYP) =  -2975.58690509     A.U. after   18 cycles
 SCF Done:  E(UB3LYP) =  -2975.58700443     A.U. after   17 cycles
 SCF Done:  E(UB3LYP) =  -2975.58701343     A.U. after   12 cycles
 Optimization completed.
    -- Stationary point found.

                         Standard orientation:
 ---------------------------------------------------------------------
 Center     Atomic      Atomic             Coordinates (Angstroms)
 Number     Number       Type             X           Y           Z
 ---------------------------------------------------------------------
      1          6           0        3.605255   -1.453608    1.290477
      2          6           0        3.852062   -1.401075   -0.060091
      3          6           0        4.187712    0.029736   -0.485174
      4          6           0        3.604726   -0.091799    1.821407
      5          6           0        3.867415    0.807258    0.775131
      6          6           0        2.489277    0.049348    2.672977
      7          6           0        2.477408   -2.146795    1.821376
      8          6           0        1.821178   -1.246701    2.734907
      9          6           0        1.701966   -2.986614    0.970034
     10          6           0        2.928318   -1.981667   -0.952834
     11          6           0        1.932661   -2.896339   -0.481139
     12          6           0        3.137323    0.268847   -1.558121
     13          6           0        2.557042   -0.964808   -1.925886
     14          6           0        2.412789    1.481000   -1.666707
     15          6           0        3.118612    1.953440    0.696424
     16          6           0        2.542884    2.409427   -0.576726
     17          6           0        1.722241    1.251396    2.652276
     18          6           0        2.157436    2.258443    1.731127
     19          6           0        0.307651    1.193818    3.017095
     20          6           0        0.440525   -1.338543    2.988810
     21          6           0       -0.332609   -0.112911    3.230594
     22          6           0        0.391310   -3.266437    1.414228
     23          6           0       -0.214462   -2.490867    2.460081
     24          6           0       -0.660482   -3.669352    0.502323
     25          6           0        0.838843   -3.108328   -1.345749
     26          6           0       -0.436309   -3.594930   -0.867790
     27          6           0        1.327641   -1.027169   -2.629257
     28          6           0        0.574422   -2.217931   -2.456395
     29          6           0        1.179893    1.480293   -2.456167
     30          6           0        0.658767    0.216871   -2.987640
     31          6           0        0.260825    2.542368   -2.257531
     32          6           0        1.461015    3.276390   -0.255681
     33          6           0        1.221847    3.193826    1.180715
     34          6           0        0.380190    3.414327   -1.112083
     35          6           0       -0.517558    2.282128    2.637137
     36          6           0       -0.060883    3.265337    1.671060
     37          6           0       -1.930055    2.134608    2.441909
     38          6           0       -1.737133   -0.203051    3.110870
     39          6           0       -2.537933    0.916105    2.693425
     40          6           0       -1.638188   -2.508977    2.259352
     41          6           0       -1.929553   -3.243453    1.043980
     42          6           0       -2.388034   -1.400772    2.600507
     43          6           0       -2.953021   -2.810721    0.205046
     44          6           0       -1.477119   -3.092077   -1.735794
     45          6           0       -0.832883   -2.241674   -2.720233
     46          6           0       -2.719795   -2.735027   -1.225841
     47          6           0       -0.714074    0.134832   -3.332387
     48          6           0       -1.462144   -1.093945   -3.172306
     49          6           0       -1.143750    2.396138   -2.531681
     50          6           0       -1.624449    1.221054   -3.080558
     51          6           0       -0.947660    3.668588   -0.587227
     52          6           0       -1.167568    3.595922    0.791064
     53          6           0       -2.341993    2.930037    1.293678
     54          6           0       -1.901563    3.076742   -1.492711
     55          6           0       -3.303722    2.429775    0.419086
     56          6           0       -3.077032    2.505058   -1.012315
     57          6           0       -3.606207    0.438856    1.835902
     58          6           0       -3.510923   -1.001570    1.778974
     59          6           0       -3.770215   -1.677588    0.583947
     60          6           0       -3.958281    1.166618    0.701104
     61          6           0       -3.397826   -1.553584   -1.727200
     62          6           0       -2.797114   -0.765868   -2.709004
     63          6           0       -2.897363    0.674423   -2.649466
     64          6           0       -3.593352    1.287349   -1.609878
     65          6           0       -4.076048   -0.916447   -0.613775
     66          6           0       -4.169841    0.473601   -0.556461
     67         17           0        5.882790    0.288237   -1.127725
 ---------------------------------------------------------------------

 The electronic state is 2-A.
 Alpha  occ. eigenvalues -- -101.56155 -10.28916 -10.24283 -10.24230 -10.24196
 Alpha  occ. eigenvalues --  -10.24165 -10.24148 -10.24085 -10.24072 -10.24035
 Alpha  occ. eigenvalues --  -10.23921 -10.23829 -10.23802 -10.23747 -10.23648
 Alpha  occ. eigenvalues --  -10.23504 -10.23474 -10.23371 -10.23223 -10.23221
 Alpha  occ. eigenvalues --  -10.23131 -10.23076 -10.23069 -10.23025 -10.23022
 Alpha  occ. eigenvalues --  -10.23002 -10.22992 -10.22973 -10.22966 -10.22957
 Alpha  occ. eigenvalues --  -10.22941 -10.22938 -10.22915 -10.22903 -10.22887
 Alpha  occ. eigenvalues --  -10.22864 -10.22864 -10.22836 -10.22835 -10.22805
 Alpha  occ. eigenvalues --  -10.22799 -10.22791 -10.22780 -10.22766 -10.22748
 Alpha  occ. eigenvalues --  -10.22736 -10.22722 -10.22714 -10.22703 -10.22696
 Alpha  occ. eigenvalues --  -10.22689 -10.22671 -10.22663 -10.22654 -10.22653
 Alpha  occ. eigenvalues --  -10.22648 -10.22640 -10.22604 -10.22580 -10.22519
 Alpha  occ. eigenvalues --  -10.22491 -10.22378 -10.22360 -10.22358 -10.22354
 Alpha  occ. eigenvalues --  -10.22321 -10.22240  -9.47578  -7.24089  -7.23033
 Alpha  occ. eigenvalues --   -7.23028  -0.99137  -0.97936  -0.97071  -0.96401
 Alpha  occ. eigenvalues --   -0.94779  -0.93780  -0.93720  -0.93075  -0.92459
 Alpha  occ. eigenvalues --   -0.90473  -0.89971  -0.89359  -0.88253  -0.87677
 Alpha  occ. eigenvalues --   -0.86924  -0.86173  -0.85141  -0.83558  -0.83046
 Alpha  occ. eigenvalues --   -0.82556  -0.82378  -0.81113  -0.80807  -0.80667
 Alpha  occ. eigenvalues --   -0.79845  -0.79663  -0.77014  -0.76241  -0.75724
 Alpha  occ. eigenvalues --   -0.75305  -0.74899  -0.74406  -0.74344  -0.73247
 Alpha  occ. eigenvalues --   -0.72434  -0.70569  -0.70090  -0.68306  -0.67675
 Alpha  occ. eigenvalues --   -0.67550  -0.66646  -0.66279  -0.65632  -0.65405
 Alpha  occ. eigenvalues --   -0.65233  -0.63834  -0.63076  -0.62560  -0.61651
 Alpha  occ. eigenvalues --   -0.60262  -0.60052  -0.58756  -0.58076  -0.57558
 Alpha  occ. eigenvalues --   -0.57165  -0.56405  -0.55645  -0.55099  -0.54614
 Alpha  occ. eigenvalues --   -0.53844  -0.53539  -0.52837  -0.52777  -0.52393
 Alpha  occ. eigenvalues --   -0.51797  -0.50763  -0.50578  -0.50069  -0.49617
 Alpha  occ. eigenvalues --   -0.49108  -0.48517  -0.48346  -0.48010  -0.47694
 Alpha  occ. eigenvalues --   -0.47429  -0.47315  -0.47094  -0.46808  -0.46672
 Alpha  occ. eigenvalues --   -0.46195  -0.46090  -0.45974  -0.45575  -0.45283
 Alpha  occ. eigenvalues --   -0.44727  -0.44488  -0.44437  -0.44268  -0.43801
 Alpha  occ. eigenvalues --   -0.43463  -0.43148  -0.42953  -0.42854  -0.42643
 Alpha  occ. eigenvalues --   -0.42452  -0.42069  -0.41752  -0.41612  -0.41344
 Alpha  occ. eigenvalues --   -0.40691  -0.39568  -0.39229  -0.38853  -0.38617
 Alpha  occ. eigenvalues --   -0.37768  -0.37533  -0.37409  -0.37251  -0.36978
 Alpha  occ. eigenvalues --   -0.36881  -0.36665  -0.36552  -0.36455  -0.36306
 Alpha  occ. eigenvalues --   -0.35975  -0.35735  -0.35345  -0.32856  -0.32617
 Alpha  occ. eigenvalues --   -0.31879  -0.31655  -0.31058  -0.30660  -0.29978
 Alpha  occ. eigenvalues --   -0.29701  -0.29266  -0.28745  -0.28674  -0.25952
 Alpha  occ. eigenvalues --   -0.25349  -0.24969  -0.24642  -0.24485  -0.24030
 Alpha  occ. eigenvalues --   -0.22851  -0.21103
 Alpha virt. eigenvalues --   -0.14162  -0.12935  -0.11929  -0.11635  -0.10208
 Alpha virt. eigenvalues --   -0.07997  -0.07471  -0.06372  -0.05680  -0.05610
 Alpha virt. eigenvalues --   -0.05407  -0.05303  -0.05008  -0.03395  -0.03026

  Beta  occ. eigenvalues -- -101.56133 -10.28941 -10.24288 -10.24282 -10.24253
  Beta  occ. eigenvalues --  -10.24146 -10.24071 -10.24062 -10.24037 -10.23947
  Beta  occ. eigenvalues --  -10.23865 -10.23833 -10.23727 -10.23685 -10.23660
  Beta  occ. eigenvalues --  -10.23515 -10.23316 -10.23231 -10.23139 -10.23112
  Beta  occ. eigenvalues --  -10.23107 -10.23080 -10.23065 -10.23025 -10.22980
  Beta  occ. eigenvalues --  -10.22977 -10.22946 -10.22918 -10.22912 -10.22905
  Beta  occ. eigenvalues --  -10.22904 -10.22888 -10.22878 -10.22877 -10.22865
  Beta  occ. eigenvalues --  -10.22857 -10.22857 -10.22807 -10.22803 -10.22802
  Beta  occ. eigenvalues --  -10.22798 -10.22784 -10.22770 -10.22765 -10.22749
  Beta  occ. eigenvalues --  -10.22723 -10.22720 -10.22719 -10.22696 -10.22692
  Beta  occ. eigenvalues --  -10.22683 -10.22664 -10.22661 -10.22650 -10.22648
  Beta  occ. eigenvalues --  -10.22633 -10.22525 -10.22521 -10.22515 -10.22505
  Beta  occ. eigenvalues --  -10.22469 -10.22424 -10.22408 -10.22363 -10.22354
  Beta  occ. eigenvalues --  -10.22311 -10.22286  -9.47556  -7.24030  -7.23014
  Beta  occ. eigenvalues --   -7.23014  -0.99000  -0.97872  -0.96958  -0.96338
  Beta  occ. eigenvalues --   -0.94689  -0.93654  -0.93593  -0.92978  -0.92410
  Beta  occ. eigenvalues --   -0.90373  -0.89858  -0.89300  -0.88174  -0.87603
  Beta  occ. eigenvalues --   -0.86830  -0.86125  -0.85029  -0.83522  -0.82968
  Beta  occ. eigenvalues --   -0.82466  -0.82214  -0.81002  -0.80723  -0.80636
  Beta  occ. eigenvalues --   -0.79788  -0.79561  -0.76952  -0.76180  -0.75650
  Beta  occ. eigenvalues --   -0.75193  -0.74785  -0.74406  -0.74180  -0.73141
  Beta  occ. eigenvalues --   -0.72339  -0.70530  -0.70040  -0.68208  -0.67585
  Beta  occ. eigenvalues --   -0.67457  -0.66572  -0.66252  -0.65583  -0.65355
  Beta  occ. eigenvalues --   -0.65116  -0.63808  -0.63007  -0.62491  -0.61528
  Beta  occ. eigenvalues --   -0.60195  -0.60004  -0.58624  -0.57966  -0.57520
  Beta  occ. eigenvalues --   -0.57119  -0.56379  -0.55598  -0.55047  -0.54549
  Beta  occ. eigenvalues --   -0.53791  -0.53492  -0.52786  -0.52729  -0.52332
  Beta  occ. eigenvalues --   -0.51709  -0.50690  -0.50324  -0.50001  -0.49553
  Beta  occ. eigenvalues --   -0.49002  -0.48432  -0.48277  -0.47796  -0.47620
  Beta  occ. eigenvalues --   -0.47372  -0.47214  -0.47005  -0.46713  -0.46627
  Beta  occ. eigenvalues --   -0.46137  -0.46049  -0.45927  -0.45447  -0.45236
  Beta  occ. eigenvalues --   -0.44655  -0.44385  -0.44312  -0.44176  -0.43599
  Beta  occ. eigenvalues --   -0.43327  -0.43049  -0.42868  -0.42804  -0.42510
  Beta  occ. eigenvalues --   -0.42354  -0.41982  -0.41616  -0.41526  -0.41284
  Beta  occ. eigenvalues --   -0.40613  -0.39427  -0.39021  -0.38730  -0.38475
  Beta  occ. eigenvalues --   -0.37630  -0.37341  -0.37224  -0.37164  -0.36942
  Beta  occ. eigenvalues --   -0.36824  -0.36622  -0.36441  -0.36402  -0.36217
  Beta  occ. eigenvalues --   -0.35864  -0.35601  -0.35074  -0.32780  -0.32457
  Beta  occ. eigenvalues --   -0.31794  -0.31414  -0.30678  -0.30214  -0.29981
  Beta  occ. eigenvalues --   -0.29319  -0.28871  -0.28545  -0.28294  -0.25788
  Beta  occ. eigenvalues --   -0.25188  -0.24693  -0.24450  -0.24300  -0.23529
  Beta  occ. eigenvalues --   -0.22900
  Beta virt. eigenvalues --   -0.16717  -0.14066  -0.12579  -0.11610  -0.11514
  Beta virt. eigenvalues --   -0.09801  -0.07713  -0.07014  -0.06251  -0.05492
  Beta virt. eigenvalues --   -0.05325  -0.05262  -0.05038  -0.04955  -0.03166

 Mulliken charges and spin densities:
               1          2
     1  C    0.006838   0.066624
     2  C    0.141198  -0.064751
     3  C   -0.572681  -0.018709
     4  C   -0.006515  -0.044960
     5  C    0.168709   0.042921
     6  C   -0.002235   0.092931
     7  C   -0.016036   0.002845
     8  C   -0.014350   0.011635
     9  C    0.032333   0.010783
    10  C    0.015919   0.172970
    11  C    0.012862  -0.072403
    12  C    0.128121   0.311509
    13  C    0.016003  -0.111209
    14  C    0.037829  -0.111966
    15  C   -0.011182  -0.043229
    16  C   -0.004253   0.252141
    17  C    0.019221  -0.027581
    18  C    0.004030   0.078068
    19  C    0.014741  -0.000312
    20  C    0.027439  -0.009408
    21  C    0.015364   0.000835
    22  C   -0.020645  -0.003072
    23  C   -0.001741   0.039911
    24  C    0.003389   0.071827
    25  C   -0.011247   0.156754
    26  C    0.000728  -0.018981
    27  C    0.026367   0.073649
    28  C   -0.001104  -0.066625
    29  C    0.013766   0.047188
    30  C    0.023393  -0.050739
    31  C   -0.001594  -0.060182
    32  C   -0.001570  -0.072405
    33  C   -0.003357   0.016056
    34  C   -0.006214   0.114749
    35  C   -0.001271  -0.006279
    36  C   -0.008318   0.007699
    37  C   -0.004065   0.015540
    38  C   -0.004420   0.001606
    39  C   -0.005843   0.002278
    40  C   -0.000735   0.010081
    41  C   -0.002746  -0.003684
    42  C   -0.006368   0.000325
    43  C    0.002533   0.011925
    44  C   -0.001162  -0.000995
    45  C   -0.002108   0.048606
    46  C    0.002866  -0.003508
    47  C   -0.004541   0.081348
    48  C   -0.004958  -0.038627
    49  C   -0.004615   0.063668
    50  C   -0.005494  -0.039081
    51  C    0.001898  -0.001620
    52  C    0.002141   0.047370
    53  C    0.000461  -0.005118
    54  C    0.001508  -0.006763
    55  C   -0.000400   0.007453
    56  C   -0.000434   0.002774
    57  C   -0.000825   0.002969
    58  C   -0.000720   0.006025
    59  C    0.001373   0.004295
    60  C    0.001988  -0.004339
    61  C    0.002332  -0.006339
    62  C   -0.000255   0.002353
    63  C   -0.001179   0.006483
    64  C    0.002757  -0.011560
    65  C    0.001075  -0.004596
    66  C   -0.001999   0.001017
    67  Cl   0.007999   0.021832
 Sum of Mulliken charges =  -0.00000   1.00000

 Dipole moment (field-independent basis, Debye):
    X=             -1.3995    Y=             -0.5227    Z=              0.1111  Tot=              1.4980
 Quadrupole moment (field-independent basis, Debye-Ang):
   XX=           -391.4171   YY=           -380.2444   ZZ=           -380.7520
   XY=             -1.8549   XZ=              2.0221   YZ=              0.6762

 Normal termination of Gaussian 16 at Fri Jul 15 04:48:19 2022.
