 Gaussian 16, Revision A.03,
 Gaussian 16:  ES64L-G16RevA.03 25-Dec-2016

 -------------------------------------------------
 #P opt b3lyp/6-311G(d, p) empiricaldispersion=GD3
 -------------------------------------------------

 -----
 force
 -----
 Symbolic Z-matrix:
 Charge =  0 Multiplicity = 1

 SCF Done:  E(RB3LYP) =  -3435.80332573     A.U. after   23 cycles
 SCF Done:  E(RB3LYP) =  -3435.81981195     A.U. after   21 cycles
 SCF Done:  E(RB3LYP) =  -3435.82124885     A.U. after   15 cycles
 SCF Done:  E(RB3LYP) =  -3435.82144579     A.U. after   16 cycles
 SCF Done:  E(RB3LYP) =  -3435.82146670     A.U. after    9 cycles
 SCF Done:  E(RB3LYP) =  -3435.82147107     A.U. after    9 cycles
 Optimization completed.
    -- Stationary point found.

                         Standard orientation:
 ---------------------------------------------------------------------
 Center     Atomic      Atomic             Coordinates (Angstroms)
 Number     Number       Type             X           Y           Z
 ---------------------------------------------------------------------
      1          6           0       -3.895064   -1.083294   -0.618135
      2          6           0       -3.795623   -0.576377    0.782060
      3          6           0       -3.819968    0.951458    0.832285
      4          6           0       -3.538030    0.166977   -1.398731
      5          6           0       -3.508801    1.300923   -0.593011
      6          6           0       -2.512367   -0.090179   -2.319734
      7          6           0       -2.737433   -1.989312   -0.985929
      8          6           0       -2.066108   -1.471063   -2.111842
      9          6           0       -2.012034   -2.727874   -0.019448
     10          6           0       -2.842968   -1.039569    1.619602
     11          6           0       -2.050512   -2.240922    1.367701
     12          6           0       -2.622744    1.275678    1.722226
     13          6           0       -2.188193    0.111664    2.304193
     14          6           0       -1.711603    2.358758    1.472878
     15          6           0       -2.591291    2.294959   -0.868492
     16          6           0       -1.818939    2.976320    0.195694
     17          6           0       -1.580115    0.916064   -2.670787
     18          6           0       -1.743566    2.179001   -2.007424
     19          6           0       -0.243422    0.525205   -3.127961
     20          6           0       -0.750066   -1.864722   -2.458653
     21          6           0        0.161786   -0.884789   -3.060699
     22          6           0       -0.819514   -3.333025   -0.470979
     23          6           0       -0.223757   -2.953213   -1.721044
     24          6           0        0.254255   -3.669427    0.437277
     25          6           0       -0.934553   -2.408375    2.165814
     26          6           0        0.196012   -3.210405    1.749045
     27          6           0       -0.911508   -0.011384    2.928348
     28          6           0       -0.393910   -1.317988    3.018905
     29          6           0       -0.410746    2.320344    2.135879
     30          6           0       -0.028855    1.140830    2.924331
     31          6           0        0.636182    3.112704    1.590576
     32          6           0       -0.671567    3.534385   -0.424748
     33          6           0       -0.618905    3.051327   -1.800163
     34          6           0        0.516885    3.685589    0.280744
     35          6           0        0.770792    1.510848   -3.105823
     36          6           0        0.585940    2.766296   -2.387333
     37          6           0        2.158775    1.173626   -2.995623
     38          6           0        1.541889   -1.186183   -3.032606
     39          6           0        2.542739   -0.156606   -2.973461
     40          6           0        1.198885   -3.169580   -1.620810
     41          6           0        1.506024   -3.622904   -0.279273
     42          6           0        2.061248   -2.323090   -2.284638
     43          6           0        2.667921   -3.179414    0.348671
     44          6           0        1.386400   -2.701705    2.384833
     45          6           0        0.997790   -1.535372    3.164798
     46          6           0        2.607184   -2.712205    1.720905
     47          6           0        1.346867    0.893300    3.174174
     48          6           0        1.860003   -0.442779    3.270449
     49          6           0        2.032054    2.779577    1.786614
     50          6           0        2.383771    1.709134    2.579217
     51          6           0        1.794878    3.550070   -0.397369
     52          6           0        1.832104    3.103292   -1.719460
     53          6           0        2.819963    2.137574   -2.125126
     54          6           0        2.752989    3.038215    0.552030
     55          6           0        3.794608    1.702935   -1.230338
     56          6           0        3.758501    2.163985    0.144216
     57          6           0        3.621901   -0.593998   -2.105578
     58          6           0        3.317211   -1.936748   -1.673013
     59          6           0        3.603427   -2.337679   -0.365787
     60          6           0        4.210476    0.312522   -1.225973
     61          6           0        3.518331   -1.587741    1.854855
     62          6           0        3.167509   -0.490991    2.639731
     63          6           0        3.491551    0.848577    2.205465
     64          6           0        4.148374    1.055314    0.994949
     65          6           0        4.156998   -1.374690    0.570223
     66          6           0        4.460247   -0.080838    0.147510
     67         17           0       -5.356931    1.711565    1.471441
     68         17           0       -5.520825   -1.832628   -1.078338
 ---------------------------------------------------------------------

 The electronic state is 1-A.
 Alpha  occ. eigenvalues -- -101.56019-101.55366 -10.28822 -10.28765 -10.24748
 Alpha  occ. eigenvalues --  -10.24667 -10.24599 -10.24506 -10.24474 -10.24452
 Alpha  occ. eigenvalues --  -10.24420 -10.24275 -10.23944 -10.23936 -10.23929
 Alpha  occ. eigenvalues --  -10.23888 -10.23869 -10.23859 -10.23826 -10.23651
 Alpha  occ. eigenvalues --  -10.23588 -10.23486 -10.23443 -10.23437 -10.23415
 Alpha  occ. eigenvalues --  -10.23409 -10.23390 -10.23383 -10.23369 -10.23364
 Alpha  occ. eigenvalues --  -10.23354 -10.23346 -10.23337 -10.23320 -10.23319
 Alpha  occ. eigenvalues --  -10.23295 -10.23292 -10.23278 -10.23276 -10.23270
 Alpha  occ. eigenvalues --  -10.23265 -10.23245 -10.23240 -10.23231 -10.23183
 Alpha  occ. eigenvalues --  -10.23164 -10.23158 -10.23151 -10.23143 -10.23134
 Alpha  occ. eigenvalues --  -10.23132 -10.23130 -10.23096 -10.23044 -10.23041
 Alpha  occ. eigenvalues --  -10.23038 -10.23031 -10.22988 -10.22974 -10.22900
 Alpha  occ. eigenvalues --  -10.22897 -10.22876 -10.22837 -10.22829 -10.22827
 Alpha  occ. eigenvalues --  -10.22775 -10.22754 -10.22698  -9.47439  -9.46792
 Alpha  occ. eigenvalues --   -7.23940  -7.23270  -7.22893  -7.22889  -7.22256
 Alpha  occ. eigenvalues --   -7.22256  -0.99376  -0.98222  -0.97431  -0.96773
 Alpha  occ. eigenvalues --   -0.95126  -0.94225  -0.94037  -0.93440  -0.92848
 Alpha  occ. eigenvalues --   -0.90889  -0.90407  -0.89598  -0.88738  -0.88180
 Alpha  occ. eigenvalues --   -0.87276  -0.86616  -0.85773  -0.85025  -0.83340
 Alpha  occ. eigenvalues --   -0.83177  -0.82866  -0.81827  -0.81353  -0.81162
 Alpha  occ. eigenvalues --   -0.80809  -0.80236  -0.79992  -0.77058  -0.76518
 Alpha  occ. eigenvalues --   -0.76093  -0.75435  -0.75218  -0.74778  -0.74428
 Alpha  occ. eigenvalues --   -0.73524  -0.72790  -0.70919  -0.70301  -0.68648
 Alpha  occ. eigenvalues --   -0.68160  -0.67766  -0.67036  -0.66557  -0.66047
 Alpha  occ. eigenvalues --   -0.65698  -0.65510  -0.64269  -0.63301  -0.62865
 Alpha  occ. eigenvalues --   -0.61948  -0.60899  -0.60561  -0.59021  -0.58430
 Alpha  occ. eigenvalues --   -0.57814  -0.57451  -0.56809  -0.56062  -0.55485
 Alpha  occ. eigenvalues --   -0.55041  -0.54210  -0.54010  -0.53438  -0.53246
 Alpha  occ. eigenvalues --   -0.52781  -0.52158  -0.51567  -0.50845  -0.50585
 Alpha  occ. eigenvalues --   -0.49936  -0.49447  -0.48927  -0.48696  -0.48302
 Alpha  occ. eigenvalues --   -0.48255  -0.47896  -0.47664  -0.47453  -0.47216
 Alpha  occ. eigenvalues --   -0.47079  -0.46724  -0.46604  -0.46475  -0.46130
 Alpha  occ. eigenvalues --   -0.45751  -0.45261  -0.44966  -0.44731  -0.44594
 Alpha  occ. eigenvalues --   -0.44252  -0.43892  -0.43677  -0.43540  -0.43338
 Alpha  occ. eigenvalues --   -0.43023  -0.42914  -0.42545  -0.42314  -0.42090
 Alpha  occ. eigenvalues --   -0.41881  -0.41446  -0.41073  -0.39920  -0.39581
 Alpha  occ. eigenvalues --   -0.38892  -0.38320  -0.38219  -0.37770  -0.37672
 Alpha  occ. eigenvalues --   -0.37454  -0.37264  -0.37217  -0.37057  -0.36869
 Alpha  occ. eigenvalues --   -0.36517  -0.36418  -0.36275  -0.36033  -0.35297
 Alpha  occ. eigenvalues --   -0.33028  -0.32681  -0.32014  -0.31478  -0.31363
 Alpha  occ. eigenvalues --   -0.31189  -0.30847  -0.30386  -0.30057  -0.29579
 Alpha  occ. eigenvalues --   -0.29082  -0.28936  -0.28606  -0.25752  -0.25559
 Alpha  occ. eigenvalues --   -0.25231  -0.24944  -0.24351  -0.23590  -0.22358
 Alpha virt. eigenvalues --   -0.16121  -0.14074  -0.12605  -0.11614  -0.10889
 Alpha virt. eigenvalues --   -0.09600  -0.08008  -0.07546  -0.06354  -0.05801
 Alpha virt. eigenvalues --   -0.05698  -0.05559  -0.05291  -0.04619  -0.03144

 Mulliken charges:
               1
     1  C   -0.553290
     2  C    0.277182
     3  C   -0.562898
     4  C    0.136608
     5  C    0.182499
     6  C    0.027918
     7  C    0.116000
     8  C    0.012344
     9  C    0.045886
    10  C    0.024805
    11  C    0.023784
    12  C    0.124021
    13  C    0.010957
    14  C    0.040198
    15  C   -0.007894
    16  C   -0.008045
    17  C    0.015522
    18  C    0.013076
    19  C    0.015269
    20  C    0.024737
    21  C    0.020243
    22  C   -0.014821
    23  C    0.002556
    24  C    0.004876
    25  C   -0.018713
    26  C    0.003189
    27  C    0.027618
    28  C   -0.001186
    29  C    0.013720
    30  C    0.026680
    31  C    0.001680
    32  C   -0.002374
    33  C   -0.000787
    34  C   -0.007253
    35  C    0.000350
    36  C   -0.008447
    37  C   -0.005178
    38  C   -0.005051
    39  C   -0.004934
    40  C   -0.001046
    41  C   -0.000908
    42  C   -0.003962
    43  C    0.001885
    44  C    0.001749
    45  C   -0.006963
    46  C    0.001258
    47  C   -0.006774
    48  C   -0.000182
    49  C   -0.001800
    50  C   -0.005552
    51  C    0.004245
    52  C    0.003232
    53  C    0.000326
    54  C    0.002357
    55  C    0.001587
    56  C    0.000099
    57  C   -0.000336
    58  C    0.000778
    59  C    0.002122
    60  C    0.001399
    61  C    0.001475
    62  C   -0.000444
    63  C   -0.000007
    64  C    0.004070
    65  C    0.000562
    66  C    0.000312
    67  Cl   0.015130
    68  Cl  -0.005463
 Sum of Mulliken charges =  -0.00000

 Dipole moment (field-independent basis, Debye):
    X=              3.4810    Y=              0.0229    Z=             -0.0981  Tot=              3.4824
 Quadrupole moment (field-independent basis, Debye-Ang):
   XX=           -414.4256   YY=           -393.9068   ZZ=           -391.8648
   XY=             -1.0617   XZ=              0.5086   YZ=             -2.5130

 Normal termination of Gaussian 16 at Fri Jul 15 07:56:48 2022.
