 Gaussian 16, Revision A.03,
 Gaussian 16:  ES64L-G16RevA.03 25-Dec-2016

 -------------------------------------------------
 #P opt b3lyp/6-311G(d, p) empiricaldispersion=GD3
 -------------------------------------------------

 -----
 force
 -----
 Symbolic Z-matrix:
 Charge =  0 Multiplicity = 2

 SCF Done:  E(UB3LYP) =  -2975.55613727     A.U. after   28 cycles
 SCF Done:  E(UB3LYP) =  -2975.56766841     A.U. after   22 cycles
 SCF Done:  E(UB3LYP) =  -2975.56816342     A.U. after   22 cycles
 SCF Done:  E(UB3LYP) =  -2975.56823641     A.U. after   18 cycles
 SCF Done:  E(UB3LYP) =  -2975.56824446     A.U. after   11 cycles
 SCF Done:  E(UB3LYP) =  -2975.56824628     A.U. after   11 cycles
 Optimization completed.
    -- Stationary point found.

                         Standard orientation:
 ---------------------------------------------------------------------
 Center     Atomic      Atomic             Coordinates (Angstroms)
 Number     Number       Type             X           Y           Z
 ---------------------------------------------------------------------
      1          6           0       -2.748070    3.093516    0.832554
      2          6           0       -3.001003    2.882068   -0.516250
      3          6           0       -3.712312    1.631181   -0.661886
      4          6           0       -3.292964    1.956320    1.587298
      5          6           0       -3.897100    1.055572    0.660501
      6          6           0       -2.302569    1.528024    2.483066
      7          6           0       -1.432234    3.366967    1.291837
      8          6           0       -1.170134    2.452698    2.374537
      9          6           0       -0.395195    3.686606    0.359814
     10          6           0       -1.923066    2.935783   -1.460550
     11          6           0       -0.654362    3.463759   -1.077992
     12          6           0       -3.023805    0.877195   -1.667636
     13          6           0       -1.991276    1.740751   -2.248225
     14          6           0       -2.806848   -0.492270   -1.554061
     15          6           0       -3.677307   -0.293106    0.824071
     16          6           0       -3.518309   -1.217910   -0.384231
     17          6           0       -2.060536    0.139610    2.686024
     18          6           0       -2.859959   -0.751980    1.889846
     19          6           0       -0.738033   -0.300097    3.116435
     20          6           0        0.135787    2.038901    2.687866
     21          6           0        0.368176    0.670239    3.166260
     22          6           0        0.920603    3.503364    0.829210
     23          6           0        1.184630    2.738886    2.019740
     24          6           0        2.042376    3.307868   -0.068622
     25          6           0        0.433776    3.084922   -1.897568
     26          6           0        1.804320    3.105185   -1.420424
     27          6           0       -0.855860    1.194433   -2.863144
     28          6           0        0.319178    2.004292   -2.832539
     29          6           0       -1.697586   -1.107291   -2.249195
     30          6           0       -0.728998   -0.259239   -2.959052
     31          6           0       -1.285985   -2.408267   -1.856573
     32          6           0       -2.662889   -2.323495    0.181800
     33          6           0       -2.371785   -2.062662    1.556899
     34          6           0       -1.737910   -2.981102   -0.580899
     35          6           0       -0.411186   -1.672142    2.969867
     36          6           0       -1.223751   -2.553328    2.150928
     37          6           0        0.944014   -2.121545    2.842963
     38          6           0        1.692498    0.186264    3.118290
     39          6           0        1.983869   -1.210758    2.929408
     40          6           0        2.499445    2.170229    1.906691
     41          6           0        3.045150    2.517536    0.608990
     42          6           0        2.756011    0.932454    2.462907
     43          6           0        3.809766    1.588742   -0.089746
     44          6           0        2.557899    2.102770   -2.137315
     45          6           0        1.622440    1.422941   -3.012922
     46          6           0        3.559335    1.374550   -1.501542
     47          6           0        0.552463   -0.780400   -3.237828
     48          6           0        1.737553    0.065998   -3.238531
     49          6           0        0.048655   -2.862986   -2.066990
     50          6           0        0.956023   -2.070939   -2.762029
     51          6           0       -0.603514   -3.624773    0.042921
     52          6           0       -0.353803   -3.425388    1.406808
     53          6           0        0.996383   -3.194640    1.860246
     54          6           0        0.492505   -3.604610   -0.891813
     55          6           0        2.062065   -3.256372    0.967636
     56          6           0        1.803410   -3.469274   -0.446035
     57          6           0        3.142127   -1.337702    2.068879
     58          6           0        3.623483   -0.005846    1.779998
     59          6           0        4.115692    0.303522    0.511214
     60          6           0        3.165162   -2.322995    1.082123
     61          6           0        3.707883   -0.042798   -1.770604
     62          6           0        2.830750   -0.680358   -2.648745
     63          6           0        2.346181   -2.010552   -2.355479
     64          6           0        2.753237   -2.668344   -1.197210
     65          6           0        4.085357   -0.702025   -0.533156
     66          6           0        3.618876   -1.986552   -0.253978
     67         17           0       -5.145432   -1.878141   -0.993479
 ---------------------------------------------------------------------

 The electronic state is 2-A.
 Alpha  occ. eigenvalues -- -101.55704 -10.29438 -10.24931 -10.24296 -10.24249
 Alpha  occ. eigenvalues --  -10.24248 -10.24207 -10.24059 -10.23988 -10.23848
 Alpha  occ. eigenvalues --  -10.23836 -10.23591 -10.23537 -10.23523 -10.23519
 Alpha  occ. eigenvalues --  -10.23422 -10.23387 -10.23308 -10.23222 -10.23181
 Alpha  occ. eigenvalues --  -10.23156 -10.23120 -10.23092 -10.23091 -10.23086
 Alpha  occ. eigenvalues --  -10.23069 -10.23065 -10.23057 -10.23041 -10.23020
 Alpha  occ. eigenvalues --  -10.23019 -10.23004 -10.22964 -10.22946 -10.22913
 Alpha  occ. eigenvalues --  -10.22899 -10.22876 -10.22859 -10.22845 -10.22826
 Alpha  occ. eigenvalues --  -10.22825 -10.22808 -10.22800 -10.22798 -10.22793
 Alpha  occ. eigenvalues --  -10.22788 -10.22781 -10.22776 -10.22773 -10.22762
 Alpha  occ. eigenvalues --  -10.22762 -10.22735 -10.22733 -10.22732 -10.22732
 Alpha  occ. eigenvalues --  -10.22725 -10.22717 -10.22672 -10.22651 -10.22620
 Alpha  occ. eigenvalues --  -10.22611 -10.22597 -10.22438 -10.22420 -10.22346
 Alpha  occ. eigenvalues --  -10.22302 -10.22257  -9.47130  -7.23652  -7.22585
 Alpha  occ. eigenvalues --   -7.22579  -0.99115  -0.97935  -0.97163  -0.96406
 Alpha  occ. eigenvalues --   -0.94846  -0.93935  -0.93649  -0.93123  -0.92472
 Alpha  occ. eigenvalues --   -0.90713  -0.89761  -0.89074  -0.88258  -0.87891
 Alpha  occ. eigenvalues --   -0.87212  -0.86249  -0.84727  -0.83507  -0.83135
 Alpha  occ. eigenvalues --   -0.82424  -0.82068  -0.81789  -0.80803  -0.80454
 Alpha  occ. eigenvalues --   -0.79930  -0.79256  -0.76944  -0.76364  -0.75733
 Alpha  occ. eigenvalues --   -0.75394  -0.74793  -0.74486  -0.74296  -0.73464
 Alpha  occ. eigenvalues --   -0.72420  -0.70651  -0.70005  -0.68343  -0.67641
 Alpha  occ. eigenvalues --   -0.67543  -0.66529  -0.66320  -0.65605  -0.65528
 Alpha  occ. eigenvalues --   -0.65463  -0.63852  -0.62903  -0.62656  -0.61720
 Alpha  occ. eigenvalues --   -0.60230  -0.60121  -0.58856  -0.57783  -0.57592
 Alpha  occ. eigenvalues --   -0.57152  -0.56402  -0.55785  -0.55217  -0.54609
 Alpha  occ. eigenvalues --   -0.53855  -0.53556  -0.53046  -0.52739  -0.52331
 Alpha  occ. eigenvalues --   -0.51688  -0.50733  -0.50344  -0.49990  -0.49751
 Alpha  occ. eigenvalues --   -0.48917  -0.48563  -0.48365  -0.48326  -0.47677
 Alpha  occ. eigenvalues --   -0.47444  -0.47219  -0.47173  -0.47020  -0.46738
 Alpha  occ. eigenvalues --   -0.46290  -0.46138  -0.45966  -0.45592  -0.45157
 Alpha  occ. eigenvalues --   -0.44913  -0.44597  -0.44351  -0.44229  -0.43934
 Alpha  occ. eigenvalues --   -0.43426  -0.43169  -0.42982  -0.42825  -0.42557
 Alpha  occ. eigenvalues --   -0.42392  -0.41994  -0.41649  -0.41360  -0.41042
 Alpha  occ. eigenvalues --   -0.40598  -0.39321  -0.39081  -0.38682  -0.38626
 Alpha  occ. eigenvalues --   -0.38610  -0.37600  -0.37544  -0.37156  -0.37109
 Alpha  occ. eigenvalues --   -0.36940  -0.36836  -0.36707  -0.36567  -0.36319
 Alpha  occ. eigenvalues --   -0.36021  -0.35694  -0.35119  -0.32962  -0.32368
 Alpha  occ. eigenvalues --   -0.32011  -0.31645  -0.30934  -0.30553  -0.30264
 Alpha  occ. eigenvalues --   -0.29996  -0.28962  -0.28729  -0.27772  -0.25814
 Alpha  occ. eigenvalues --   -0.25386  -0.24890  -0.24628  -0.24501  -0.23658
 Alpha  occ. eigenvalues --   -0.23116  -0.22347
 Alpha virt. eigenvalues --   -0.14473  -0.13516  -0.11902  -0.11786  -0.09413
 Alpha virt. eigenvalues --   -0.07881  -0.07428  -0.06766  -0.05923  -0.05457
 Alpha virt. eigenvalues --   -0.05295  -0.05227  -0.05056  -0.04335  -0.02577

  Beta  occ. eigenvalues -- -101.55668 -10.29474 -10.24587 -10.24385 -10.24227
  Beta  occ. eigenvalues --  -10.24195 -10.24186 -10.24013 -10.23981 -10.23784
  Beta  occ. eigenvalues --  -10.23702 -10.23576 -10.23574 -10.23445 -10.23423
  Beta  occ. eigenvalues --  -10.23272 -10.23220 -10.23219 -10.23182 -10.23166
  Beta  occ. eigenvalues --  -10.23146 -10.23132 -10.23093 -10.23086 -10.23073
  Beta  occ. eigenvalues --  -10.23050 -10.23044 -10.23029 -10.23013 -10.22998
  Beta  occ. eigenvalues --  -10.22966 -10.22948 -10.22939 -10.22922 -10.22917
  Beta  occ. eigenvalues --  -10.22903 -10.22894 -10.22868 -10.22833 -10.22827
  Beta  occ. eigenvalues --  -10.22812 -10.22811 -10.22810 -10.22797 -10.22791
  Beta  occ. eigenvalues --  -10.22784 -10.22778 -10.22765 -10.22765 -10.22759
  Beta  occ. eigenvalues --  -10.22759 -10.22754 -10.22741 -10.22739 -10.22730
  Beta  occ. eigenvalues --  -10.22723 -10.22713 -10.22695 -10.22658 -10.22647
  Beta  occ. eigenvalues --  -10.22642 -10.22451 -10.22434 -10.22417 -10.22352
  Beta  occ. eigenvalues --  -10.22321 -10.22234  -9.47095  -7.23549  -7.22561
  Beta  occ. eigenvalues --   -7.22555  -0.98919  -0.97768  -0.97126  -0.96354
  Beta  occ. eigenvalues --   -0.94729  -0.93878  -0.93532  -0.93048  -0.92443
  Beta  occ. eigenvalues --   -0.90631  -0.89673  -0.88931  -0.88200  -0.87786
  Beta  occ. eigenvalues --   -0.87142  -0.86203  -0.84604  -0.83403  -0.83094
  Beta  occ. eigenvalues --   -0.82317  -0.81982  -0.81689  -0.80710  -0.80443
  Beta  occ. eigenvalues --   -0.79872  -0.79202  -0.76891  -0.76292  -0.75651
  Beta  occ. eigenvalues --   -0.75360  -0.74743  -0.74400  -0.74039  -0.73355
  Beta  occ. eigenvalues --   -0.72291  -0.70596  -0.69960  -0.68292  -0.67579
  Beta  occ. eigenvalues --   -0.67503  -0.66490  -0.66236  -0.65486  -0.65469
  Beta  occ. eigenvalues --   -0.65325  -0.63781  -0.62838  -0.62591  -0.61668
  Beta  occ. eigenvalues --   -0.60121  -0.60073  -0.58814  -0.57700  -0.57533
  Beta  occ. eigenvalues --   -0.57083  -0.56327  -0.55718  -0.55173  -0.54543
  Beta  occ. eigenvalues --   -0.53829  -0.53493  -0.53012  -0.52662  -0.52299
  Beta  occ. eigenvalues --   -0.51611  -0.50670  -0.50165  -0.49878  -0.49680
  Beta  occ. eigenvalues --   -0.48846  -0.48448  -0.48275  -0.48062  -0.47586
  Beta  occ. eigenvalues --   -0.47385  -0.47138  -0.47093  -0.46927  -0.46707
  Beta  occ. eigenvalues --   -0.46217  -0.46079  -0.45909  -0.45494  -0.45022
  Beta  occ. eigenvalues --   -0.44837  -0.44359  -0.44276  -0.44120  -0.43858
  Beta  occ. eigenvalues --   -0.43258  -0.43055  -0.42950  -0.42754  -0.42485
  Beta  occ. eigenvalues --   -0.42337  -0.41897  -0.41554  -0.41299  -0.40929
  Beta  occ. eigenvalues --   -0.40526  -0.39030  -0.38929  -0.38575  -0.38485
  Beta  occ. eigenvalues --   -0.38292  -0.37476  -0.37353  -0.37111  -0.37052
  Beta  occ. eigenvalues --   -0.36916  -0.36786  -0.36621  -0.36513  -0.36225
  Beta  occ. eigenvalues --   -0.35968  -0.35576  -0.34828  -0.32754  -0.32235
  Beta  occ. eigenvalues --   -0.31766  -0.31545  -0.30476  -0.30270  -0.30083
  Beta  occ. eigenvalues --   -0.29760  -0.28899  -0.28607  -0.27584  -0.25747
  Beta  occ. eigenvalues --   -0.25276  -0.24776  -0.24534  -0.24450  -0.22797
  Beta  occ. eigenvalues --   -0.22738
  Beta virt. eigenvalues --   -0.17216  -0.14005  -0.13172  -0.11855  -0.11605
  Beta virt. eigenvalues --   -0.09296  -0.07818  -0.07192  -0.06397  -0.05484
  Beta virt. eigenvalues --   -0.05352  -0.05125  -0.05037  -0.05013  -0.03761

 Mulliken charges and spin densities:
               1          2
     1  C   -0.000218   0.185917
     2  C   -0.005868  -0.094507
     3  C   -0.018496   0.440005
     4  C   -0.025108   0.119701
     5  C    0.033482  -0.066123
     6  C    0.005517  -0.037707
     7  C   -0.008860  -0.064701
     8  C   -0.016721   0.120844
     9  C    0.025121   0.048365
    10  C    0.001976   0.007241
    11  C    0.023122  -0.009391
    12  C    0.054391  -0.136856
    13  C   -0.023193   0.034452
    14  C    0.127237   0.249386
    15  C    0.147597   0.067396
    16  C   -0.626025  -0.024468
    17  C    0.017038   0.039850
    18  C    0.015064  -0.026807
    19  C    0.012426  -0.003649
    20  C    0.026088  -0.044967
    21  C    0.018449   0.027364
    22  C   -0.019419  -0.037714
    23  C   -0.000210   0.071713
    24  C    0.002006   0.004556
    25  C   -0.016009  -0.011721
    26  C    0.001849  -0.007977
    27  C    0.033779  -0.019233
    28  C   -0.004731  -0.001172
    29  C    0.054834  -0.076715
    30  C    0.013340   0.050784
    31  C   -0.008437   0.116230
    32  C    0.148813   0.026024
    33  C    0.022532   0.002484
    34  C    0.016024  -0.024197
    35  C    0.001706   0.009165
    36  C   -0.017576   0.014993
    37  C   -0.004885  -0.006459
    38  C   -0.006681  -0.009046
    39  C   -0.005204   0.005093
    40  C   -0.001656  -0.015460
    41  C   -0.002050   0.003508
    42  C   -0.006374   0.029829
    43  C    0.003527  -0.003275
    44  C   -0.002132   0.005180
    45  C    0.000188  -0.009306
    46  C    0.002641  -0.006793
    47  C   -0.000383  -0.035745
    48  C   -0.007988   0.004436
    49  C   -0.004172  -0.034510
    50  C   -0.003937   0.050047
    51  C    0.003348   0.013218
    52  C    0.006834  -0.006078
    53  C   -0.002133  -0.001568
    54  C    0.000646   0.016416
    55  C    0.000923  -0.001887
    56  C    0.000141  -0.009204
    57  C    0.000092   0.000715
    58  C   -0.000544  -0.006489
    59  C    0.001854   0.011411
    60  C    0.001711   0.005440
    61  C    0.002748   0.002145
    62  C    0.000133  -0.000636
    63  C    0.000124  -0.011449
    64  C    0.001516   0.022881
    65  C    0.001544   0.004772
    66  C   -0.001804  -0.003854
    67  Cl   0.010455   0.038105
 Sum of Mulliken charges =  -0.00000   1.00000

 Dipole moment (field-independent basis, Debye):
    X=              1.5029    Y=              0.7251    Z=              0.1872  Tot=              1.6792
 Quadrupole moment (field-independent basis, Debye-Ang):
   XX=           -390.0171   YY=           -381.2829   ZZ=           -380.6855
   XY=             -4.7488   XZ=             -2.0792   YZ=             -0.6481

 Normal termination of Gaussian 16 at Fri Jul 15 22:50:17 2022.
