 Gaussian 16, Revision A.03,
 Gaussian 16:  ES64L-G16RevA.03 25-Dec-2016

 -------------------------------------------------
 #P opt b3lyp/6-311G(d, p) empiricaldispersion=GD3
 -------------------------------------------------

 -----
 force
 -----
 Symbolic Z-matrix:
 Charge =  0 Multiplicity = 1

 SCF Done:  E(RB3LYP) =  -3435.82012778     A.U. after   20 cycles
 SCF Done:  E(RB3LYP) =  -3435.83417535     A.U. after   20 cycles
 SCF Done:  E(RB3LYP) =  -3435.83504559     A.U. after   19 cycles
 SCF Done:  E(RB3LYP) =  -3435.83516907     A.U. after   15 cycles
 SCF Done:  E(RB3LYP) =  -3435.83517995     A.U. after    9 cycles
 Optimization completed.
    -- Stationary point found.

                         Input orientation:
 ---------------------------------------------------------------------
 Center     Atomic      Atomic             Coordinates (Angstroms)
 Number     Number       Type             X           Y           Z
 ---------------------------------------------------------------------
      1          6           0        2.894404   -2.500833    1.249295
      2          6           0        3.232713   -2.336652   -0.067125
      3          6           0        3.921507   -0.989057   -0.284839
      4          6           0        3.167005   -1.248239    1.957214
      5          6           0        3.711384   -0.312054    1.056506
      6          6           0        2.056623   -0.959156    2.767773
      7          6           0        1.608061   -2.976339    1.639262
      8          6           0        1.110841   -2.066591    2.636679
      9          6           0        0.721220   -3.507365    0.655608
     10          6           0        2.262634   -2.582391   -1.069452
     11          6           0        1.062300   -3.302666   -0.762076
     12          6           0        3.000198   -0.377386   -1.332359
     13          6           0        2.195280   -1.420948   -1.915688
     14          6           0        2.578996    0.924187   -1.318301
     15          6           0        3.257733    0.976544    1.109742
     16          6           0        3.069736    1.820272   -0.155616
     17          6           0        1.577969    0.375114    2.865194
     18          6           0        2.287224    1.347225    2.082625
     19          6           0        0.170769    0.608842    3.173493
     20          6           0       -0.267986   -1.863604    2.824267
     21          6           0       -0.760103   -0.530286    3.196290
     22          6           0       -0.644852   -3.526696    1.009654
     23          6           0       -1.129911   -2.761580    2.125660
     24          6           0       -1.697971   -3.562454    0.014931
     25          6           0        0.008064   -3.153247   -1.688775
     26          6           0       -1.376168   -3.384091   -1.323922
     27          6           0        1.042562   -1.111966   -2.659535
     28          6           0        0.024815   -2.109751   -2.676800
     29          6           0        1.441351    1.317227   -2.139474
     30          6           0        0.692539    0.288397   -2.861850
     31          6           0        0.797038    2.548051   -1.868610
     32          6           0        1.989605    2.784847    0.275995
     33          6           0        1.626295    2.541901    1.637056
     34          6           0        1.038079    3.242092   -0.593437
     35          6           0       -0.358491    1.897936    2.918473
     36          6           0        0.368050    2.863227    2.113029
     37          6           0       -1.752558    2.108419    2.660940
     38          6           0       -2.137114   -0.277198    3.018680
     39          6           0       -2.633102    1.041352    2.722146
     40          6           0       -2.503547   -2.425113    1.875109
     41          6           0       -2.870969   -2.919630    0.561769
     42          6           0       -3.003796   -1.220622    2.330165
     43          6           0       -3.710374   -2.164160   -0.250469
     44          6           0       -2.216965   -2.555569   -2.157437
     45          6           0       -1.332978   -1.769094   -2.998269
     46          6           0       -3.375496   -1.977908   -1.649201
     47          6           0       -0.630346    0.572582   -3.278438
     48          6           0       -1.650809   -0.462442   -3.315299
     49          6           0       -0.570351    2.759311   -2.204202
     50          6           0       -1.276649    1.796498   -2.920415
     51          6           0       -0.234198    3.715365   -0.097873
     52          6           0       -0.564367    3.541583    1.252959
     53          6           0       -1.893276    3.110252    1.613696
     54          6           0       -1.228254    3.468671   -1.111066
     55          6           0       -2.873666    2.950012    0.639607
     56          6           0       -2.532929    3.136839   -0.760491
     57          6           0       -3.718647    0.932243    1.769088
     58          6           0       -3.949132   -0.474099    1.526123
     59          6           0       -4.271958   -0.921305    0.243865
     60          6           0       -3.815662    1.851731    0.725496
     61          6           0       -3.730032   -0.618491   -2.015346
     62          6           0       -2.900871    0.115638   -2.862748
     63          6           0       -2.667293    1.521630   -2.615852
     64          6           0       -3.272662    2.153988   -1.532906
     65          6           0       -4.316737    0.024816   -0.854203
     66          6           0       -4.091417    1.381410   -0.619240
     67         17           0        5.645967   -1.075736   -0.862252
     68         17           0        4.605789    2.717188   -0.650834
 ---------------------------------------------------------------------

 The electronic state is 1-A.
 Alpha  occ. eigenvalues -- -101.56414-101.55747 -10.29620 -10.29394 -10.24465
 Alpha  occ. eigenvalues --  -10.24457 -10.24413 -10.24368 -10.24346 -10.24314
 Alpha  occ. eigenvalues --  -10.24283 -10.24280 -10.24229 -10.24112 -10.24109
 Alpha  occ. eigenvalues --  -10.24058 -10.23803 -10.23746 -10.23740 -10.23519
 Alpha  occ. eigenvalues --  -10.23516 -10.23478 -10.23382 -10.23376 -10.23352
 Alpha  occ. eigenvalues --  -10.23337 -10.23325 -10.23299 -10.23247 -10.23209
 Alpha  occ. eigenvalues --  -10.23196 -10.23177 -10.23148 -10.23145 -10.23139
 Alpha  occ. eigenvalues --  -10.23124 -10.23119 -10.23104 -10.23091 -10.23091
 Alpha  occ. eigenvalues --  -10.23072 -10.23042 -10.23012 -10.23009 -10.23008
 Alpha  occ. eigenvalues --  -10.23007 -10.22968 -10.22935 -10.22922 -10.22914
 Alpha  occ. eigenvalues --  -10.22914 -10.22897 -10.22892 -10.22888 -10.22882
 Alpha  occ. eigenvalues --  -10.22869 -10.22865 -10.22837 -10.22835 -10.22783
 Alpha  occ. eigenvalues --  -10.22771 -10.22761 -10.22719 -10.22588 -10.22580
 Alpha  occ. eigenvalues --  -10.22487 -10.22433 -10.22291  -9.47844  -9.47184
 Alpha  occ. eigenvalues --   -7.24351  -7.23680  -7.23295  -7.23285  -7.22639
 Alpha  occ. eigenvalues --   -7.22633  -0.99440  -0.98171  -0.97341  -0.96610
 Alpha  occ. eigenvalues --   -0.95079  -0.94184  -0.94015  -0.93289  -0.92674
 Alpha  occ. eigenvalues --   -0.90958  -0.90167  -0.89658  -0.88601  -0.88080
 Alpha  occ. eigenvalues --   -0.87610  -0.86438  -0.85805  -0.84391  -0.83723
 Alpha  occ. eigenvalues --   -0.83289  -0.82695  -0.82171  -0.81372  -0.80927
 Alpha  occ. eigenvalues --   -0.80699  -0.80030  -0.79430  -0.77220  -0.76486
 Alpha  occ. eigenvalues --   -0.75918  -0.75553  -0.74959  -0.74693  -0.74148
 Alpha  occ. eigenvalues --   -0.73489  -0.72572  -0.70860  -0.70308  -0.68498
 Alpha  occ. eigenvalues --   -0.67857  -0.67778  -0.66773  -0.66481  -0.65868
 Alpha  occ. eigenvalues --   -0.65742  -0.65613  -0.64039  -0.63242  -0.62907
 Alpha  occ. eigenvalues --   -0.61933  -0.60492  -0.60370  -0.59070  -0.58258
 Alpha  occ. eigenvalues --   -0.57870  -0.57417  -0.56679  -0.55966  -0.55422
 Alpha  occ. eigenvalues --   -0.54845  -0.54103  -0.53835  -0.53328  -0.53043
 Alpha  occ. eigenvalues --   -0.52612  -0.52062  -0.51070  -0.50936  -0.50417
 Alpha  occ. eigenvalues --   -0.50077  -0.49280  -0.49088  -0.48639  -0.48518
 Alpha  occ. eigenvalues --   -0.47900  -0.47703  -0.47608  -0.47416  -0.47378
 Alpha  occ. eigenvalues --   -0.46940  -0.46495  -0.46435  -0.46251  -0.45999
 Alpha  occ. eigenvalues --   -0.45764  -0.45361  -0.45029  -0.44669  -0.44541
 Alpha  occ. eigenvalues --   -0.44162  -0.43872  -0.43474  -0.43290  -0.43110
 Alpha  occ. eigenvalues --   -0.42907  -0.42637  -0.42532  -0.42289  -0.41912
 Alpha  occ. eigenvalues --   -0.41683  -0.40994  -0.40901  -0.39873  -0.39308
 Alpha  occ. eigenvalues --   -0.38913  -0.38774  -0.38209  -0.37624  -0.37546
 Alpha  occ. eigenvalues --   -0.37376  -0.37162  -0.37073  -0.37013  -0.36914
 Alpha  occ. eigenvalues --   -0.36726  -0.36359  -0.36016  -0.35847  -0.34313
 Alpha  occ. eigenvalues --   -0.33656  -0.33076  -0.32364  -0.31919  -0.31515
 Alpha  occ. eigenvalues --   -0.31472  -0.30599  -0.30359  -0.30021  -0.29605
 Alpha  occ. eigenvalues --   -0.29142  -0.28840  -0.27679  -0.25974  -0.25447
 Alpha  occ. eigenvalues --   -0.25006  -0.24702  -0.24620  -0.23122  -0.22769
 Alpha virt. eigenvalues --   -0.14557  -0.14229  -0.12049  -0.11937  -0.11290
 Alpha virt. eigenvalues --   -0.09425  -0.08010  -0.07180  -0.06534  -0.05620
 Alpha virt. eigenvalues --   -0.05514  -0.05344  -0.05185  -0.04726  -0.03398

 Mulliken charges:
               1
     1  C    0.008899
     2  C    0.137540
     3  C   -0.580731
     4  C   -0.003479
     5  C    0.182377
     6  C   -0.000111
     7  C   -0.015422
     8  C   -0.016095
     9  C    0.031381
    10  C    0.020118
    11  C    0.018110
    12  C    0.171227
    13  C    0.018695
    14  C    0.153616
    15  C    0.158375
    16  C   -0.640867
    17  C    0.016087
    18  C    0.019166
    19  C    0.017598
    20  C    0.029043
    21  C    0.014310
    22  C   -0.020781
    23  C   -0.001762
    24  C    0.003237
    25  C   -0.013205
    26  C    0.001669
    27  C    0.026270
    28  C   -0.000836
    29  C    0.048392
    30  C    0.021045
    31  C   -0.010787
    32  C    0.144213
    33  C    0.021508
    34  C    0.015937
    35  C   -0.000646
    36  C   -0.015703
    37  C   -0.003589
    38  C   -0.004894
    39  C   -0.005181
    40  C   -0.001250
    41  C   -0.002705
    42  C   -0.006827
    43  C    0.004546
    44  C   -0.001376
    45  C    0.000400
    46  C    0.003475
    47  C   -0.001066
    48  C   -0.006675
    49  C   -0.005284
    50  C   -0.003807
    51  C    0.003307
    52  C    0.006231
    53  C   -0.002397
    54  C    0.001344
    55  C    0.001550
    56  C   -0.000450
    57  C    0.000031
    58  C   -0.000047
    59  C    0.002064
    60  C    0.001825
    61  C    0.003663
    62  C    0.000150
    63  C   -0.000564
    64  C    0.002416
    65  C    0.001862
    66  C   -0.002102
    67  Cl   0.029503
    68  Cl   0.027457
 Sum of Mulliken charges =  -0.00000

 Dipole moment (field-independent basis, Debye):
    X=             -2.4357    Y=             -1.0581    Z=              0.2516  Tot=              2.6674
 Quadrupole moment (field-independent basis, Debye-Ang):
   XX=           -407.4859   YY=           -395.0784   ZZ=           -392.5724
   XY=             -4.0974   XZ=              3.0323   YZ=              1.1504

 Normal termination of Gaussian 16 at Fri Jul 15 19:53:01 2022.
