 Gaussian 16, Revision A.03,
 Gaussian 16:  ES64L-G16RevA.03 25-Dec-2016

 -------------------------------------------------
 #P opt b3lyp/6-311G(d, p) empiricaldispersion=GD3
 -------------------------------------------------

 -----
 force
 -----
 Symbolic Z-matrix:
 Charge =  0 Multiplicity = 2

 SCF Done:  E(UB3LYP) =  -2975.56038446     A.U. after   31 cycles
 SCF Done:  E(UB3LYP) =  -2975.57561343     A.U. after   26 cycles
 SCF Done:  E(UB3LYP) =  -2975.57672386     A.U. after   18 cycles
 SCF Done:  E(UB3LYP) =  -2975.57695024     A.U. after   18 cycles
 SCF Done:  E(UB3LYP) =  -2975.57697044     A.U. after   15 cycles
 SCF Done:  E(UB3LYP) =  -2975.57697373     A.U. after   13 cycles
 Optimization completed.
    -- Stationary point found.

                         Input orientation:
 ---------------------------------------------------------------------
 Center     Atomic      Atomic             Coordinates (Angstroms)
 Number     Number       Type             X           Y           Z
 ---------------------------------------------------------------------
      1          6           0       -4.230641   -0.302508   -0.290555
      2          6           0       -3.885491   -0.192346    1.154373
      3          6           0       -3.573229    1.156646    1.494972
      4          6           0       -3.831443    1.079959   -0.808828
      5          6           0       -3.534739    1.935784    0.290022
      6          6           0       -2.913828    0.950563   -1.838117
      7          6           0       -3.254694   -1.205287   -0.996365
      8          6           0       -2.627917   -0.482665   -2.024832
      9          6           0       -2.583799   -2.265779   -0.337504
     10          6           0       -2.999276   -1.069897    1.812398
     11          6           0       -2.442682   -2.203028    1.141203
     12          6           0       -2.483778    1.149680    2.394793
     13          6           0       -2.167103   -0.255316    2.665156
     14          6           0       -1.435035    2.104403    2.289532
     15          6           0       -2.507107    2.864020    0.156924
     16          6           0       -1.554687    3.066273    1.229258
     17          6           0       -1.855927    1.906447   -2.042234
     18          6           0       -1.777568    2.958861   -1.087758
     19          6           0       -0.638125    1.484288   -2.736215
     20          6           0       -1.422515   -0.921933   -2.621809
     21          6           0       -0.437751    0.062290   -3.074373
     22          6           0       -1.534591   -2.854599   -1.072143
     23          6           0       -1.004046   -2.224098   -2.251223
     24          6           0       -0.447832   -3.573366   -0.437207
     25          6           0       -1.272394   -2.733003    1.710930
     26          6           0       -0.316119   -3.505327    0.942379
     27          6           0       -0.877672   -0.654596    3.040398
     28          6           0       -0.524367   -1.996607    2.702865
     29          6           0       -0.097313    1.739661    2.770355
     30          6           0        0.173755    0.357889    3.194571
     31          6           0        0.997208    2.523938    2.333572
     32          6           0       -0.381834    3.650003    0.649460
     33          6           0       -0.519689    3.585545   -0.796050
     34          6           0        0.856016    3.454645    1.225528
     35          6           0        0.514546    2.294400   -2.597350
     36          6           0        0.583421    3.323841   -1.576765
     37          6           0        1.844718    1.764801   -2.743423
     38          6           0        0.875363   -0.402503   -3.295694
     39          6           0        2.025521    0.443905   -3.106390
     40          6           0        0.366847   -2.635746   -2.399915
     41          6           0        0.724759   -3.476346   -1.275061
     42          6           0        1.282505   -1.752413   -2.933159
     43          6           0        1.995118   -3.373208   -0.714457
     44          6           0        0.995632   -3.342514    1.528232
     45          6           0        0.851581   -2.400745    2.620114
     46          6           0        2.133377   -3.304396    0.727792
     47          6           0        1.509246   -0.098809    3.196740
     48          6           0        1.848606   -1.481748    2.886409
     49          6           0        2.332938    2.000921    2.270907
     50          6           0        2.589995    0.714827    2.711474
     51          6           0        2.041668    3.367030    0.401361
     52          6           0        1.907691    3.301292   -0.989867
     53          6           0        2.710024    2.368897   -1.742366
     54          6           0        2.983631    2.501180    1.069355
     55          6           0        3.676125    1.592780   -1.107530
     56          6           0        3.815145    1.660994    0.335824
     57          6           0        3.094518   -0.340151   -2.515671
     58          6           0        2.633872   -1.704212   -2.410359
     59          6           0        2.973892   -2.479124   -1.299647
     60          6           0        3.885398    0.215276   -1.510904
     61          6           0        3.200416   -2.370188    1.031333
     62          6           0        3.072165   -1.494917    2.111370
     63          6           0        3.533942   -0.130456    2.000055
     64          6           0        4.110340    0.323058    0.817660
     65          6           0        3.743967   -1.883172   -0.222594
     66          6           0        4.188935   -0.565961   -0.327501
     67         17           0       -5.978714   -0.786047   -0.608277
 ---------------------------------------------------------------------

 The electronic state is 2-A.
 Alpha  occ. eigenvalues -- -101.55874 -10.28342 -10.24421 -10.24338 -10.24329
 Alpha  occ. eigenvalues --  -10.24266 -10.24199 -10.24172 -10.24063 -10.23919
 Alpha  occ. eigenvalues --  -10.23675 -10.23645 -10.23536 -10.23511 -10.23465
 Alpha  occ. eigenvalues --  -10.23442 -10.23397 -10.23276 -10.23255 -10.23235
 Alpha  occ. eigenvalues --  -10.23150 -10.23145 -10.23144 -10.23123 -10.23115
 Alpha  occ. eigenvalues --  -10.23089 -10.23080 -10.23077 -10.23065 -10.23061
 Alpha  occ. eigenvalues --  -10.23049 -10.23023 -10.22996 -10.22992 -10.22991
 Alpha  occ. eigenvalues --  -10.22987 -10.22970 -10.22968 -10.22954 -10.22949
 Alpha  occ. eigenvalues --  -10.22920 -10.22920 -10.22913 -10.22906 -10.22904
 Alpha  occ. eigenvalues --  -10.22831 -10.22804 -10.22802 -10.22783 -10.22770
 Alpha  occ. eigenvalues --  -10.22765 -10.22745 -10.22730 -10.22685 -10.22675
 Alpha  occ. eigenvalues --  -10.22649 -10.22628 -10.22567 -10.22486 -10.22451
 Alpha  occ. eigenvalues --  -10.22443 -10.22441 -10.22403 -10.22399 -10.22372
 Alpha  occ. eigenvalues --  -10.22173 -10.22140  -9.47289  -7.23812  -7.22749
 Alpha  occ. eigenvalues --   -7.22737  -0.99079  -0.97962  -0.97134  -0.96421
 Alpha  occ. eigenvalues --   -0.94837  -0.93817  -0.93703  -0.93104  -0.92470
 Alpha  occ. eigenvalues --   -0.90661  -0.89875  -0.89016  -0.88300  -0.87756
 Alpha  occ. eigenvalues --   -0.86811  -0.86247  -0.85628  -0.83448  -0.83020
 Alpha  occ. eigenvalues --   -0.82550  -0.81896  -0.81458  -0.80755  -0.80564
 Alpha  occ. eigenvalues --   -0.79915  -0.79724  -0.76796  -0.76301  -0.75766
 Alpha  occ. eigenvalues --   -0.75172  -0.74925  -0.74510  -0.74358  -0.73451
 Alpha  occ. eigenvalues --   -0.72454  -0.70604  -0.69979  -0.68410  -0.67710
 Alpha  occ. eigenvalues --   -0.67517  -0.66619  -0.66319  -0.65617  -0.65454
 Alpha  occ. eigenvalues --   -0.65273  -0.63914  -0.62904  -0.62540  -0.61717
 Alpha  occ. eigenvalues --   -0.60420  -0.60124  -0.58824  -0.57815  -0.57480
 Alpha  occ. eigenvalues --   -0.57109  -0.56391  -0.55703  -0.55162  -0.54680
 Alpha  occ. eigenvalues --   -0.53804  -0.53744  -0.53019  -0.52806  -0.52379
 Alpha  occ. eigenvalues --   -0.51676  -0.51168  -0.50429  -0.49958  -0.49566
 Alpha  occ. eigenvalues --   -0.48796  -0.48627  -0.48460  -0.48056  -0.47698
 Alpha  occ. eigenvalues --   -0.47468  -0.47194  -0.47072  -0.46894  -0.46710
 Alpha  occ. eigenvalues --   -0.46404  -0.46217  -0.45956  -0.45717  -0.45151
 Alpha  occ. eigenvalues --   -0.44908  -0.44423  -0.44310  -0.44214  -0.43632
 Alpha  occ. eigenvalues --   -0.43590  -0.43233  -0.42981  -0.42956  -0.42734
 Alpha  occ. eigenvalues --   -0.42483  -0.42275  -0.41850  -0.41626  -0.41013
 Alpha  occ. eigenvalues --   -0.40455  -0.39568  -0.39234  -0.38718  -0.38558
 Alpha  occ. eigenvalues --   -0.37986  -0.37657  -0.37321  -0.37165  -0.36968
 Alpha  occ. eigenvalues --   -0.36915  -0.36740  -0.36610  -0.36494  -0.36184
 Alpha  occ. eigenvalues --   -0.36023  -0.35924  -0.35715  -0.32677  -0.32357
 Alpha  occ. eigenvalues --   -0.31849  -0.31661  -0.30840  -0.30749  -0.30240
 Alpha  occ. eigenvalues --   -0.29702  -0.28824  -0.28727  -0.28549  -0.25624
 Alpha  occ. eigenvalues --   -0.25451  -0.24998  -0.24671  -0.24568  -0.23640
 Alpha  occ. eigenvalues --   -0.22905  -0.22108
 Alpha virt. eigenvalues --   -0.14210  -0.13225  -0.12066  -0.10715  -0.10633
 Alpha virt. eigenvalues --   -0.08130  -0.07634  -0.06284  -0.05797  -0.05544
 Alpha virt. eigenvalues --   -0.05425  -0.05375  -0.05087  -0.04222  -0.02208

  Beta  occ. eigenvalues -- -101.55835 -10.28383 -10.24410 -10.24379 -10.24345
  Beta  occ. eigenvalues --  -10.24257 -10.24197 -10.24065 -10.24045 -10.23946
  Beta  occ. eigenvalues --  -10.23625 -10.23576 -10.23509 -10.23508 -10.23448
  Beta  occ. eigenvalues --  -10.23339 -10.23228 -10.23212 -10.23152 -10.23128
  Beta  occ. eigenvalues --  -10.23120 -10.23112 -10.23107 -10.23090 -10.23079
  Beta  occ. eigenvalues --  -10.23071 -10.23062 -10.23048 -10.23039 -10.23020
  Beta  occ. eigenvalues --  -10.23015 -10.22983 -10.22982 -10.22981 -10.22962
  Beta  occ. eigenvalues --  -10.22949 -10.22928 -10.22914 -10.22901 -10.22888
  Beta  occ. eigenvalues --  -10.22855 -10.22840 -10.22812 -10.22808 -10.22802
  Beta  occ. eigenvalues --  -10.22798 -10.22796 -10.22789 -10.22784 -10.22756
  Beta  occ. eigenvalues --  -10.22755 -10.22735 -10.22717 -10.22684 -10.22647
  Beta  occ. eigenvalues --  -10.22642 -10.22642 -10.22559 -10.22520 -10.22510
  Beta  occ. eigenvalues --  -10.22456 -10.22455 -10.22449 -10.22400 -10.22398
  Beta  occ. eigenvalues --  -10.22310 -10.22273  -9.47251  -7.23708  -7.22715
  Beta  occ. eigenvalues --   -7.22711  -0.98920  -0.97832  -0.97073  -0.96350
  Beta  occ. eigenvalues --   -0.94736  -0.93754  -0.93549  -0.93022  -0.92427
  Beta  occ. eigenvalues --   -0.90572  -0.89753  -0.88956  -0.88213  -0.87690
  Beta  occ. eigenvalues --   -0.86761  -0.86180  -0.85496  -0.83384  -0.82853
  Beta  occ. eigenvalues --   -0.82476  -0.81845  -0.81299  -0.80662  -0.80532
  Beta  occ. eigenvalues --   -0.79870  -0.79654  -0.76629  -0.76263  -0.75687
  Beta  occ. eigenvalues --   -0.75055  -0.74853  -0.74449  -0.74225  -0.73420
  Beta  occ. eigenvalues --   -0.72324  -0.70553  -0.69888  -0.68367  -0.67571
  Beta  occ. eigenvalues --   -0.67460  -0.66559  -0.66247  -0.65593  -0.65374
  Beta  occ. eigenvalues --   -0.65196  -0.63874  -0.62820  -0.62491  -0.61612
  Beta  occ. eigenvalues --   -0.60326  -0.60009  -0.58759  -0.57758  -0.57409
  Beta  occ. eigenvalues --   -0.57044  -0.56333  -0.55667  -0.55120  -0.54630
  Beta  occ. eigenvalues --   -0.53758  -0.53665  -0.52984  -0.52733  -0.52321
  Beta  occ. eigenvalues --   -0.51618  -0.51023  -0.50323  -0.49794  -0.49507
  Beta  occ. eigenvalues --   -0.48636  -0.48529  -0.48353  -0.47930  -0.47592
  Beta  occ. eigenvalues --   -0.47403  -0.47129  -0.46996  -0.46793  -0.46676
  Beta  occ. eigenvalues --   -0.46347  -0.46140  -0.45891  -0.45561  -0.45073
  Beta  occ. eigenvalues --   -0.44815  -0.44340  -0.44250  -0.44075  -0.43474
  Beta  occ. eigenvalues --   -0.43389  -0.43128  -0.42916  -0.42901  -0.42604
  Beta  occ. eigenvalues --   -0.42386  -0.42218  -0.41755  -0.41521  -0.40921
  Beta  occ. eigenvalues --   -0.40365  -0.39421  -0.39010  -0.38559  -0.38321
  Beta  occ. eigenvalues --   -0.37857  -0.37585  -0.37248  -0.37141  -0.36897
  Beta  occ. eigenvalues --   -0.36875  -0.36663  -0.36536  -0.36402  -0.36120
  Beta  occ. eigenvalues --   -0.35886  -0.35831  -0.35523  -0.32535  -0.32147
  Beta  occ. eigenvalues --   -0.31580  -0.31214  -0.30704  -0.30607  -0.30095
  Beta  occ. eigenvalues --   -0.29087  -0.28598  -0.28513  -0.28377  -0.25438
  Beta  occ. eigenvalues --   -0.25186  -0.24806  -0.24381  -0.24293  -0.23415
  Beta  occ. eigenvalues --   -0.22837
  Beta virt. eigenvalues --   -0.17323  -0.14110  -0.12913  -0.11766  -0.10525
  Beta virt. eigenvalues --   -0.10324  -0.07767  -0.07409  -0.06066  -0.05676
  Beta virt. eigenvalues --   -0.05425  -0.05282  -0.05227  -0.04966  -0.03240

 Mulliken charges and spin densities:
               1          2
     1  C   -0.562598  -0.027530
     2  C    0.166766   0.426647
     3  C   -0.010169  -0.104604
     4  C    0.113125  -0.021493
     5  C    0.038041   0.068672
     6  C    0.026032   0.012451
     7  C    0.114539   0.016302
     8  C    0.009740  -0.006644
     9  C    0.046975  -0.022135
    10  C   -0.007340  -0.105959
    11  C    0.022948   0.092305
    12  C    0.000868   0.139367
    13  C   -0.019308   0.143592
    14  C    0.019148  -0.043278
    15  C   -0.027590  -0.023039
    16  C    0.004404   0.135760
    17  C    0.008340  -0.002081
    18  C    0.008643   0.014441
    19  C    0.017533   0.008260
    20  C    0.022246   0.020244
    21  C    0.021224  -0.006581
    22  C   -0.017770   0.029440
    23  C    0.004788  -0.010873
    24  C    0.001805  -0.014896
    25  C   -0.019260  -0.052288
    26  C    0.002059   0.026870
    27  C    0.030206  -0.057071
    28  C   -0.000457   0.167510
    29  C    0.015129   0.010081
    30  C    0.016427   0.002956
    31  C    0.000005   0.003659
    32  C   -0.003364  -0.036328
    33  C   -0.004873   0.005842
    34  C   -0.005856   0.072914
    35  C    0.000062   0.003417
    36  C   -0.006590  -0.011720
    37  C   -0.004997   0.023086
    38  C   -0.007419   0.003485
    39  C   -0.005889  -0.012077
    40  C   -0.003257  -0.000680
    41  C   -0.001597   0.003399
    42  C   -0.004374   0.001909
    43  C    0.001805  -0.006875
    44  C   -0.001331   0.008932
    45  C   -0.000817  -0.037472
    46  C    0.002038  -0.010492
    47  C   -0.005148   0.005666
    48  C   -0.005702   0.072305
    49  C   -0.004351  -0.000860
    50  C   -0.005723   0.005279
    51  C    0.003188  -0.021306
    52  C    0.003651   0.041442
    53  C    0.002113  -0.011773
    54  C    0.001820   0.008268
    55  C   -0.000826   0.010045
    56  C    0.000092  -0.004880
    57  C    0.000461   0.024796
    58  C   -0.000533  -0.009660
    59  C    0.001467   0.008260
    60  C    0.002613  -0.014938
    61  C    0.001622   0.027109
    62  C   -0.000107  -0.018698
    63  C    0.001209   0.014965
    64  C    0.002583  -0.006384
    65  C    0.001681  -0.011922
    66  C   -0.001515   0.014595
    67  Cl   0.001365   0.040266
 Sum of Mulliken charges =  -0.00000   1.00000

 Dipole moment (field-independent basis, Debye):
    X=              1.9436    Y=              0.5176    Z=              0.1401  Tot=              2.0162
 Quadrupole moment (field-independent basis, Debye-Ang):
   XX=           -393.0524   YY=           -380.1600   ZZ=           -380.0978
   XY=             -2.0264   XZ=             -0.9195   YZ=             -0.1039

 Normal termination of Gaussian 16 at Fri Jul 15 01:03:56 2022.
