 Gaussian 16, Revision A.03,
 Gaussian 16:  ES64L-G16RevA.03 25-Dec-2016

 -------------------------------------------------
 #P opt b3lyp/6-311G(d, p) empiricaldispersion=GD3
 -------------------------------------------------

 -----
 force
 -----
 Symbolic Z-matrix:
 Charge =  0 Multiplicity = 1

 SCF Done:  E(RB3LYP) =  -3435.81875369     A.U. after   22 cycles
 SCF Done:  E(RB3LYP) =  -3435.83313426     A.U. after   21 cycles
 SCF Done:  E(RB3LYP) =  -3435.83383064     A.U. after   16 cycles
 SCF Done:  E(RB3LYP) =  -3435.83391043     A.U. after   14 cycles
 SCF Done:  E(RB3LYP) =  -3435.83392036     A.U. after    8 cycles
 Optimization completed.
    -- Stationary point found.

                         Input orientation:
 ---------------------------------------------------------------------
 Center     Atomic      Atomic             Coordinates (Angstroms)
 Number     Number       Type             X           Y           Z
 ---------------------------------------------------------------------
      1          6           0       -3.986753   -0.109674   -0.785793
      2          6           0       -3.986680   -0.109502    0.785763
      3          6           0       -3.445291    1.261693    1.150395
      4          6           0       -3.445701    1.261656   -1.150925
      5          6           0       -3.246599    2.063574   -0.000251
      6          6           0       -2.443832    1.152700   -2.102186
      7          6           0       -2.942821   -1.015888   -1.396340
      8          6           0       -2.194002   -0.278523   -2.329614
      9          6           0       -2.388669   -2.136160   -0.744599
     10          6           0       -2.943179   -1.015863    1.396688
     11          6           0       -2.388663   -2.135966    0.744984
     12          6           0       -2.443697    1.152959    2.101907
     13          6           0       -2.194070   -0.278260    2.329700
     14          6           0       -1.349848    2.078001    2.164951
     15          6           0       -2.179087    2.967077   -0.000250
     16          6           0       -1.332826    3.089772    1.162740
     17          6           0       -1.349894    2.077689   -2.165320
     18          6           0       -1.332787    3.089601   -1.163272
     19          6           0       -0.084381    1.639439   -2.761916
     20          6           0       -0.958768   -0.738703   -2.834008
     21          6           0        0.098246    0.227280   -3.145700
     22          6           0       -1.291015   -2.732746   -1.399946
     23          6           0       -0.624256   -2.071511   -2.487957
     24          6           0       -0.294113   -3.514499   -0.693126
     25          6           0       -1.291021   -2.732511    1.400444
     26          6           0       -0.294128   -3.514330    0.693711
     27          6           0       -0.958852   -0.738262    2.834183
     28          6           0       -0.624261   -2.071123    2.488298
     29          6           0       -0.084380    1.639911    2.761667
     30          6           0        0.098201    0.227801    3.145646
     31          6           0        1.074439    2.400284    2.478756
     32          6           0       -0.087455    3.655739    0.725630
     33          6           0       -0.087437    3.655654   -0.726243
     34          6           0        1.077467    3.383654    1.408162
     35          6           0        1.074436    2.399856   -2.479132
     36          6           0        1.077483    3.383386   -1.408702
     37          6           0        2.393379    1.827357   -2.522685
     38          6           0        1.409644   -0.277244   -3.263077
     39          6           0        2.562616    0.516212   -2.925465
     40          6           0        0.740897   -2.527322   -2.523280
     41          6           0        0.958586   -3.427504   -1.409469
     42          6           0        1.733147   -1.657082   -2.924585
     43          6           0        2.170808   -3.396941   -0.725223
     44          6           0        0.958584   -3.427271    1.410052
     45          6           0        0.740898   -2.526967    2.523745
     46          6           0        2.170805   -3.396828    0.725800
     47          6           0        1.409599   -0.276709    3.263152
     48          6           0        1.733117   -1.656605    2.924859
     49          6           0        2.393369    1.827788    2.522411
     50          6           0        2.562566    0.516691    2.925391
     51          6           0        2.334453    3.284496    0.699364
     52          6           0        2.334479    3.284385   -0.699902
     53          6           0        3.174909    2.353476   -1.414590
     54          6           0        3.174889    2.353704    1.414220
     55          6           0        4.046273    1.514933   -0.726082
     56          6           0        4.046253    1.515052    0.725852
     57          6           0        3.541760   -0.332892   -2.270673
     58          6           0        3.027128   -1.682822   -2.273216
     59          6           0        3.231688   -2.516774   -1.172424
     60          6           0        4.247646    0.148241   -1.171267
     61          6           0        3.231665   -2.516565    1.172857
     62          6           0        3.027108   -1.682447    2.273515
     63          6           0        3.541721   -0.332508    2.270744
     64          6           0        4.247614    0.148436    1.171271
     65          6           0        3.911801   -1.996387    0.000173
     66          6           0        4.407703   -0.694136    0.000072
     67         17           0       -5.592346   -0.456139   -1.575220
     68         17           0       -5.592682   -0.454439    1.575261
 ---------------------------------------------------------------------

 The electronic state is 1-A.
 Alpha  occ. eigenvalues -- -101.56319-101.56318 -10.29250 -10.29234 -10.24551
 Alpha  occ. eigenvalues --  -10.24550 -10.24437 -10.24436 -10.24328 -10.24301
 Alpha  occ. eigenvalues --  -10.24267 -10.24266 -10.23856 -10.23570 -10.23568
 Alpha  occ. eigenvalues --  -10.23539 -10.23537 -10.23508 -10.23507 -10.23458
 Alpha  occ. eigenvalues --  -10.23457 -10.23337 -10.23335 -10.23323 -10.23318
 Alpha  occ. eigenvalues --  -10.23229 -10.23203 -10.23196 -10.23184 -10.23178
 Alpha  occ. eigenvalues --  -10.23165 -10.23161 -10.23143 -10.23143 -10.23141
 Alpha  occ. eigenvalues --  -10.23116 -10.23114 -10.23095 -10.23062 -10.23061
 Alpha  occ. eigenvalues --  -10.23057 -10.23003 -10.23002 -10.22985 -10.22985
 Alpha  occ. eigenvalues --  -10.22948 -10.22913 -10.22913 -10.22912 -10.22910
 Alpha  occ. eigenvalues --  -10.22895 -10.22884 -10.22883 -10.22857 -10.22857
 Alpha  occ. eigenvalues --  -10.22787 -10.22786 -10.22774 -10.22773 -10.22680
 Alpha  occ. eigenvalues --  -10.22680 -10.22678 -10.22580 -10.22557 -10.22556
 Alpha  occ. eigenvalues --  -10.22544 -10.22495 -10.22495  -9.47765  -9.47762
 Alpha  occ. eigenvalues --   -7.24274  -7.24272  -7.23208  -7.23207  -7.23205
 Alpha  occ. eigenvalues --   -7.23204  -0.99317  -0.98125  -0.97248  -0.96537
 Alpha  occ. eigenvalues --   -0.95029  -0.94073  -0.93993  -0.93208  -0.92563
 Alpha  occ. eigenvalues --   -0.90979  -0.90160  -0.89284  -0.88641  -0.88219
 Alpha  occ. eigenvalues --   -0.86999  -0.86596  -0.86296  -0.85245  -0.83569
 Alpha  occ. eigenvalues --   -0.82847  -0.82310  -0.81997  -0.81278  -0.80807
 Alpha  occ. eigenvalues --   -0.80661  -0.79995  -0.79793  -0.76683  -0.76401
 Alpha  occ. eigenvalues --   -0.75744  -0.75140  -0.75121  -0.74595  -0.74336
 Alpha  occ. eigenvalues --   -0.73587  -0.72460  -0.70763  -0.70071  -0.68651
 Alpha  occ. eigenvalues --   -0.67765  -0.67558  -0.66729  -0.66420  -0.65807
 Alpha  occ. eigenvalues --   -0.65601  -0.65350  -0.64049  -0.63122  -0.62716
 Alpha  occ. eigenvalues --   -0.61827  -0.60788  -0.60484  -0.59036  -0.57997
 Alpha  occ. eigenvalues --   -0.57637  -0.57221  -0.56597  -0.55825  -0.55305
 Alpha  occ. eigenvalues --   -0.54897  -0.54231  -0.53942  -0.53246  -0.53188
 Alpha  occ. eigenvalues --   -0.52615  -0.51867  -0.51477  -0.51039  -0.50265
 Alpha  occ. eigenvalues --   -0.49761  -0.49224  -0.48796  -0.48717  -0.48170
 Alpha  occ. eigenvalues --   -0.47915  -0.47670  -0.47486  -0.47261  -0.47102
 Alpha  occ. eigenvalues --   -0.46861  -0.46708  -0.46553  -0.46307  -0.46140
 Alpha  occ. eigenvalues --   -0.45425  -0.45235  -0.44962  -0.44597  -0.44422
 Alpha  occ. eigenvalues --   -0.43903  -0.43727  -0.43617  -0.43351  -0.43146
 Alpha  occ. eigenvalues --   -0.42842  -0.42784  -0.42597  -0.42346  -0.41782
 Alpha  occ. eigenvalues --   -0.41637  -0.41163  -0.40519  -0.39940  -0.39601
 Alpha  occ. eigenvalues --   -0.38814  -0.38142  -0.37998  -0.37790  -0.37317
 Alpha  occ. eigenvalues --   -0.37239  -0.37010  -0.36899  -0.36880  -0.36753
 Alpha  occ. eigenvalues --   -0.36422  -0.36285  -0.36095  -0.36043  -0.35731
 Alpha  occ. eigenvalues --   -0.33567  -0.33103  -0.32121  -0.31973  -0.31659
 Alpha  occ. eigenvalues --   -0.31078  -0.30761  -0.30302  -0.30266  -0.28772
 Alpha  occ. eigenvalues --   -0.28766  -0.28610  -0.28579  -0.25587  -0.25195
 Alpha  occ. eigenvalues --   -0.24890  -0.24529  -0.24121  -0.23446  -0.22837
 Alpha virt. eigenvalues --   -0.14467  -0.14145  -0.12461  -0.10699  -0.10488
 Alpha virt. eigenvalues --   -0.10269  -0.08057  -0.07440  -0.06266  -0.05731
 Alpha virt. eigenvalues --   -0.05511  -0.05356  -0.05332  -0.05077  -0.02063

 Mulliken charges:
               1
     1  C   -0.423338
     2  C   -0.423424
     3  C    0.127021
     4  C    0.126882
     5  C    0.058723
     6  C    0.028617
     7  C    0.109715
     8  C    0.016006
     9  C    0.045459
    10  C    0.110041
    11  C    0.045088
    12  C    0.028635
    13  C    0.015875
    14  C    0.011294
    15  C   -0.037400
    16  C    0.009283
    17  C    0.011387
    18  C    0.009243
    19  C    0.017624
    20  C    0.024056
    21  C    0.021238
    22  C   -0.018202
    23  C    0.004041
    24  C    0.001830
    25  C   -0.018049
    26  C    0.001794
    27  C    0.024326
    28  C    0.003884
    29  C    0.017758
    30  C    0.021044
    31  C   -0.000189
    32  C   -0.004935
    33  C   -0.004868
    34  C   -0.005498
    35  C   -0.000123
    36  C   -0.005553
    37  C   -0.005344
    38  C   -0.007967
    39  C   -0.005886
    40  C   -0.003133
    41  C   -0.001514
    42  C   -0.003802
    43  C    0.002569
    44  C   -0.001540
    45  C   -0.003048
    46  C    0.002589
    47  C   -0.007884
    48  C   -0.003874
    49  C   -0.005317
    50  C   -0.005916
    51  C    0.003040
    52  C    0.003061
    53  C    0.002595
    54  C    0.002588
    55  C   -0.000321
    56  C   -0.000316
    57  C    0.000975
    58  C   -0.000429
    59  C    0.001453
    60  C    0.002742
    61  C    0.001443
    62  C   -0.000404
    63  C    0.000985
    64  C    0.002740
    65  C    0.002429
    66  C   -0.001576
    67  Cl   0.039907
    68  Cl   0.039871
 Sum of Mulliken charges =  -0.00000

 Dipole moment (field-independent basis, Debye):
    X=              2.4156    Y=              0.4938    Z=             -0.0004  Tot=              2.4655
 Quadrupole moment (field-independent basis, Debye-Ang):
   XX=           -407.9353   YY=           -392.4580   ZZ=           -393.9291
   XY=             -1.8179   XZ=              0.0024   YZ=             -0.0013

 Normal termination of Gaussian 16 at Fri Jul 15 01:43:35 2022.
