 Gaussian 16, Revision A.03,
 Gaussian 16:  ES64L-G16RevA.03 25-Dec-2016

 -------------------------------------------------
 #P opt b3lyp/6-311G(d, p) empiricaldispersion=GD3
 -------------------------------------------------

 -----
 force
 -----
 Symbolic Z-matrix:
 Charge =  0 Multiplicity = 2

 SCF Done:  E(UB3LYP) =  -3896.03212191     A.U. after   31 cycles
 SCF Done:  E(UB3LYP) =  -3896.04727235     A.U. after   22 cycles
 SCF Done:  E(UB3LYP) =  -3896.04831158     A.U. after   26 cycles
 SCF Done:  E(UB3LYP) =  -3896.04847007     A.U. after   20 cycles
 SCF Done:  E(UB3LYP) =  -3896.04849259     A.U. after   13 cycles
 SCF Done:  E(UB3LYP) =  -3896.04849823     A.U. after   12 cycles
 Optimization completed.
    -- Stationary point found.

                         Standard orientation:
 ---------------------------------------------------------------------
 Center     Atomic      Atomic             Coordinates (Angstroms)
 Number     Number       Type             X           Y           Z
 ---------------------------------------------------------------------
      1          6           0        3.763518   -1.105021    0.825642
      2          6           0        3.857313   -0.687268   -0.687646
      3          6           0        3.572794    0.804026   -0.684370
      4          6           0        3.392955    0.186388    1.526143
      5          6           0        3.392607    1.286779    0.648963
      6          6           0        2.333577   -0.022130    2.407622
      7          6           0        2.570700   -1.975963    1.159287
      8          6           0        1.880711   -1.408874    2.246604
      9          6           0        1.892004   -2.780575    0.222253
     10          6           0        2.717699   -1.220888   -1.520085
     11          6           0        1.972324   -2.378948   -1.208201
     12          6           0        2.545673    1.097364   -1.629619
     13          6           0        2.127477   -0.163643   -2.233701
     14          6           0        1.632363    2.134493   -1.480374
     15          6           0        2.483979    2.317540    0.877270
     16          6           0        1.850951    3.078292   -0.284120
     17          6           0        1.387585    0.996588    2.680710
     18          6           0        1.571731    2.219011    1.944342
     19          6           0        0.044361    0.630744    3.123987
     20          6           0        0.562790   -1.787325    2.586005
     21          6           0       -0.360630   -0.785574    3.123268
     22          6           0        0.684300   -3.354745    0.673695
     23          6           0        0.057791   -2.913004    1.888729
     24          6           0       -0.373333   -3.757584   -0.234695
     25          6           0        0.843427   -2.610420   -2.020851
     26          6           0       -0.294212   -3.393122   -1.570141
     27          6           0        0.874907   -0.289424   -2.871941
     28          6           0        0.340069   -1.599412   -2.909403
     29          6           0        0.355923    2.076445   -2.168906
     30          6           0       -0.008682    0.867924   -2.926725
     31          6           0       -0.687995    2.931648   -1.742160
     32          6           0        0.539625    3.522287    0.314561
     33          6           0        0.448781    3.080503    1.672068
     34          6           0       -0.604259    3.598757   -0.431987
     35          6           0       -0.969133    1.612210    3.037698
     36          6           0       -0.771296    2.834462    2.266967
     37          6           0       -2.354480    1.264881    2.913995
     38          6           0       -1.736973   -1.091812    3.082383
     39          6           0       -2.736669   -0.066248    2.947844
     40          6           0       -1.359407   -3.143533    1.777471
     41          6           0       -1.639487   -3.670762    0.457379
     42          6           0       -2.237000   -2.266400    2.380464
     43          6           0       -2.792144   -3.271785   -0.213988
     44          6           0       -1.477445   -2.930778   -2.258476
     45          6           0       -1.071119   -1.815364   -3.089856
     46          6           0       -2.709874   -2.892023   -1.610947
     47          6           0       -1.369724    0.624704   -3.210694
     48          6           0       -1.905079   -0.729055   -3.261879
     49          6           0       -2.059858    2.593247   -1.948574
     50          6           0       -2.404140    1.470534   -2.692164
     51          6           0       -1.896467    3.490930    0.202113
     52          6           0       -1.983397    3.127350    1.553267
     53          6           0       -2.988108    2.181211    1.977358
     54          6           0       -2.818899    2.920978   -0.748019
     55          6           0       -3.927981    1.696770    1.073756
     56          6           0       -3.841996    2.078297   -0.325859
     57          6           0       -3.789621   -0.548119    2.075330
     58          6           0       -3.480501   -1.915339    1.723933
     59          6           0       -3.738939   -2.385584    0.435750
     60          6           0       -4.350942    0.311218    1.132378
     61          6           0       -3.605618   -1.771735   -1.823825
     62          6           0       -3.222626   -0.722008   -2.659488
     63          6           0       -3.531155    0.645236   -2.302767
     64          6           0       -4.218221    0.925726   -1.124557
     65          6           0       -4.267099   -1.477067   -0.565172
     66          6           0       -4.564370   -0.158414   -0.224641
     67         17           0        5.261081   -1.868639    1.529594
     68         17           0        5.431293   -1.089368   -1.523436
     69         17           0        2.878547    4.540385   -0.815595
 ---------------------------------------------------------------------

 The electronic state is 2-A.
 Alpha  occ. eigenvalues -- -101.56562-101.56404-101.55588 -10.29601 -10.29581
 Alpha  occ. eigenvalues --  -10.29570 -10.24929 -10.24846 -10.24790 -10.24693
 Alpha  occ. eigenvalues --  -10.24667 -10.24659 -10.24653 -10.24628 -10.24586
 Alpha  occ. eigenvalues --  -10.24288 -10.24085 -10.24004 -10.23959 -10.23930
 Alpha  occ. eigenvalues --  -10.23921 -10.23894 -10.23886 -10.23858 -10.23768
 Alpha  occ. eigenvalues --  -10.23703 -10.23693 -10.23612 -10.23572 -10.23569
 Alpha  occ. eigenvalues --  -10.23559 -10.23528 -10.23514 -10.23513 -10.23509
 Alpha  occ. eigenvalues --  -10.23495 -10.23484 -10.23459 -10.23444 -10.23443
 Alpha  occ. eigenvalues --  -10.23428 -10.23396 -10.23334 -10.23328 -10.23328
 Alpha  occ. eigenvalues --  -10.23310 -10.23308 -10.23298 -10.23275 -10.23270
 Alpha  occ. eigenvalues --  -10.23268 -10.23267 -10.23248 -10.23240 -10.23231
 Alpha  occ. eigenvalues --  -10.23218 -10.23195 -10.23186 -10.23183 -10.23158
 Alpha  occ. eigenvalues --  -10.23132 -10.23126 -10.23085 -10.23009 -10.22969
 Alpha  occ. eigenvalues --  -10.22925 -10.22907 -10.22856 -10.22810  -9.48006
 Alpha  occ. eigenvalues --   -9.47848  -9.47018  -7.24517  -7.24369  -7.23544
 Alpha  occ. eigenvalues --   -7.23452  -7.23445  -7.23302  -7.23285  -7.22473
 Alpha  occ. eigenvalues --   -7.22470  -0.99809  -0.98503  -0.97680  -0.96962
 Alpha  occ. eigenvalues --   -0.95487  -0.94522  -0.94512  -0.93626  -0.92989
 Alpha  occ. eigenvalues --   -0.91470  -0.90524  -0.89740  -0.89266  -0.88757
 Alpha  occ. eigenvalues --   -0.87809  -0.86943  -0.86712  -0.85591  -0.84908
 Alpha  occ. eigenvalues --   -0.83566  -0.83285  -0.82452  -0.82069  -0.81736
 Alpha  occ. eigenvalues --   -0.81151  -0.80857  -0.80387  -0.79673  -0.76998
 Alpha  occ. eigenvalues --   -0.76842  -0.76012  -0.75570  -0.75361  -0.74872
 Alpha  occ. eigenvalues --   -0.74632  -0.74009  -0.72895  -0.71192  -0.70417
 Alpha  occ. eigenvalues --   -0.68929  -0.68139  -0.67970  -0.67046  -0.66735
 Alpha  occ. eigenvalues --   -0.66315  -0.66012  -0.65963  -0.64434  -0.63488
 Alpha  occ. eigenvalues --   -0.63129  -0.62264  -0.61245  -0.60926  -0.59566
 Alpha  occ. eigenvalues --   -0.58438  -0.58130  -0.57632  -0.57050  -0.56308
 Alpha  occ. eigenvalues --   -0.55762  -0.55247  -0.54679  -0.54337  -0.53779
 Alpha  occ. eigenvalues --   -0.53639  -0.53035  -0.52337  -0.51911  -0.51510
 Alpha  occ. eigenvalues --   -0.50822  -0.50480  -0.49621  -0.49400  -0.49162
 Alpha  occ. eigenvalues --   -0.49038  -0.48316  -0.48069  -0.47899  -0.47862
 Alpha  occ. eigenvalues --   -0.47727  -0.47383  -0.47244  -0.47007  -0.46807
 Alpha  occ. eigenvalues --   -0.46566  -0.46078  -0.45625  -0.45419  -0.45277
 Alpha  occ. eigenvalues --   -0.44892  -0.44803  -0.44203  -0.44021  -0.43876
 Alpha  occ. eigenvalues --   -0.43636  -0.43327  -0.43180  -0.43054  -0.42838
 Alpha  occ. eigenvalues --   -0.42170  -0.42021  -0.41619  -0.41380  -0.40896
 Alpha  occ. eigenvalues --   -0.40513  -0.40330  -0.39384  -0.38740  -0.38375
 Alpha  occ. eigenvalues --   -0.38132  -0.37613  -0.37575  -0.37492  -0.37383
 Alpha  occ. eigenvalues --   -0.37210  -0.37159  -0.36831  -0.36727  -0.36442
 Alpha  occ. eigenvalues --   -0.36160  -0.35376  -0.33736  -0.33314  -0.32583
 Alpha  occ. eigenvalues --   -0.32496  -0.32255  -0.31925  -0.31920  -0.31247
 Alpha  occ. eigenvalues --   -0.30863  -0.30479  -0.30182  -0.29180  -0.29106
 Alpha  occ. eigenvalues --   -0.29037  -0.27653  -0.25907  -0.25538  -0.25217
 Alpha  occ. eigenvalues --   -0.24586  -0.24132  -0.23635  -0.22386
 Alpha virt. eigenvalues --   -0.14862  -0.13753  -0.12803  -0.11285  -0.10688
 Alpha virt. eigenvalues --   -0.09424  -0.07915  -0.07493  -0.06483  -0.06195
 Alpha virt. eigenvalues --   -0.05873  -0.05633  -0.05460  -0.04579  -0.02441

  Beta  occ. eigenvalues -- -101.56559-101.56377-101.55539 -10.29630 -10.29628
  Beta  occ. eigenvalues --  -10.29567 -10.24961 -10.24885 -10.24818 -10.24675
  Beta  occ. eigenvalues --  -10.24648 -10.24574 -10.24527 -10.24344 -10.24268
  Beta  occ. eigenvalues --  -10.24223 -10.24092 -10.24043 -10.24024 -10.23954
  Beta  occ. eigenvalues --  -10.23938 -10.23866 -10.23756 -10.23734 -10.23667
  Beta  occ. eigenvalues --  -10.23647 -10.23571 -10.23565 -10.23561 -10.23527
  Beta  occ. eigenvalues --  -10.23521 -10.23509 -10.23500 -10.23491 -10.23486
  Beta  occ. eigenvalues --  -10.23469 -10.23452 -10.23448 -10.23437 -10.23428
  Beta  occ. eigenvalues --  -10.23363 -10.23350 -10.23338 -10.23333 -10.23327
  Beta  occ. eigenvalues --  -10.23317 -10.23305 -10.23300 -10.23295 -10.23290
  Beta  occ. eigenvalues --  -10.23266 -10.23260 -10.23259 -10.23253 -10.23246
  Beta  occ. eigenvalues --  -10.23201 -10.23193 -10.23185 -10.23182 -10.23156
  Beta  occ. eigenvalues --  -10.23145 -10.23131 -10.23130 -10.22992 -10.22983
  Beta  occ. eigenvalues --  -10.22920 -10.22875 -10.22842 -10.22815  -9.48003
  Beta  occ. eigenvalues --   -9.47821  -9.46969  -7.24513  -7.24306  -7.23445
  Beta  occ. eigenvalues --   -7.23443  -7.23401  -7.23270  -7.23265  -7.22442
  Beta  occ. eigenvalues --   -7.22437  -0.99610  -0.98402  -0.97644  -0.96914
  Beta  occ. eigenvalues --   -0.95399  -0.94459  -0.94393  -0.93561  -0.92970
  Beta  occ. eigenvalues --   -0.91402  -0.90442  -0.89640  -0.89196  -0.88665
  Beta  occ. eigenvalues --   -0.87717  -0.86883  -0.86644  -0.85520  -0.84755
  Beta  occ. eigenvalues --   -0.83511  -0.83224  -0.82361  -0.81970  -0.81568
  Beta  occ. eigenvalues --   -0.81099  -0.80830  -0.80351  -0.79592  -0.76983
  Beta  occ. eigenvalues --   -0.76751  -0.75889  -0.75552  -0.75278  -0.74723
  Beta  occ. eigenvalues --   -0.74451  -0.73901  -0.72791  -0.71137  -0.70380
  Beta  occ. eigenvalues --   -0.68860  -0.68121  -0.67905  -0.67025  -0.66643
  Beta  occ. eigenvalues --   -0.66100  -0.65967  -0.65899  -0.64370  -0.63415
  Beta  occ. eigenvalues --   -0.63041  -0.62206  -0.61154  -0.60880  -0.59550
  Beta  occ. eigenvalues --   -0.58354  -0.58074  -0.57559  -0.56973  -0.56229
  Beta  occ. eigenvalues --   -0.55713  -0.55172  -0.54638  -0.54318  -0.53748
  Beta  occ. eigenvalues --   -0.53567  -0.52959  -0.52254  -0.51757  -0.51445
  Beta  occ. eigenvalues --   -0.50604  -0.50375  -0.49498  -0.49310  -0.49072
  Beta  occ. eigenvalues --   -0.48942  -0.48261  -0.47994  -0.47846  -0.47756
  Beta  occ. eigenvalues --   -0.47629  -0.47325  -0.47193  -0.46926  -0.46707
  Beta  occ. eigenvalues --   -0.46508  -0.45964  -0.45581  -0.45321  -0.45224
  Beta  occ. eigenvalues --   -0.44796  -0.44696  -0.44063  -0.43920  -0.43823
  Beta  occ. eigenvalues --   -0.43575  -0.43258  -0.43123  -0.43021  -0.42788
  Beta  occ. eigenvalues --   -0.42115  -0.41867  -0.41543  -0.41252  -0.40795
  Beta  occ. eigenvalues --   -0.40353  -0.40161  -0.39237  -0.38556  -0.38294
  Beta  occ. eigenvalues --   -0.38042  -0.37575  -0.37510  -0.37426  -0.37341
  Beta  occ. eigenvalues --   -0.37187  -0.37087  -0.36766  -0.36560  -0.36257
  Beta  occ. eigenvalues --   -0.36024  -0.35129  -0.33683  -0.33184  -0.32440
  Beta  occ. eigenvalues --   -0.32395  -0.32112  -0.31814  -0.31714  -0.31062
  Beta  occ. eigenvalues --   -0.30602  -0.30257  -0.29971  -0.29076  -0.29001
  Beta  occ. eigenvalues --   -0.28822  -0.27444  -0.25797  -0.25423  -0.25103
  Beta  occ. eigenvalues --   -0.24467  -0.23597  -0.23181
  Beta virt. eigenvalues --   -0.16260  -0.14665  -0.13497  -0.12789  -0.10880
  Beta virt. eigenvalues --   -0.10571  -0.09270  -0.07686  -0.07202  -0.06404
  Beta virt. eigenvalues --   -0.05909  -0.05610  -0.05485  -0.05355  -0.04224

 Mulliken charges and spin densities:
               1          2
     1  C   -0.423045  -0.004294
     2  C   -0.419101  -0.027097
     3  C    0.121327   0.548685
     4  C    0.134326   0.146798
     5  C    0.072662  -0.111076
     6  C    0.028143  -0.071417
     7  C    0.108048  -0.017679
     8  C    0.017893   0.028507
     9  C    0.047638   0.004417
    10  C    0.112117  -0.033683
    11  C    0.047030   0.015713
    12  C    0.075265  -0.156379
    13  C    0.016112   0.064803
    14  C    0.122946   0.264440
    15  C    0.134694   0.155198
    16  C   -0.629327  -0.031404
    17  C    0.015714   0.101900
    18  C    0.027511  -0.047174
    19  C    0.015318  -0.027273
    20  C    0.023536  -0.010471
    21  C    0.023402   0.022108
    22  C   -0.018157  -0.011338
    23  C    0.004412   0.007476
    24  C    0.002286  -0.006270
    25  C   -0.016342  -0.023263
    26  C    0.002058  -0.000195
    27  C    0.027533  -0.029791
    28  C    0.002253   0.019759
    29  C    0.053115  -0.079959
    30  C    0.023650   0.058901
    31  C   -0.008345   0.114659
    32  C    0.149649   0.032623
    33  C    0.021130   0.023995
    34  C    0.015432  -0.019514
    35  C    0.002746   0.047864
    36  C   -0.015289  -0.018811
    37  C   -0.004952  -0.016512
    38  C   -0.007827  -0.017022
    39  C   -0.003692   0.025117
    40  C   -0.002691  -0.003891
    41  C   -0.000938  -0.001283
    42  C   -0.003293   0.004532
    43  C    0.003957  -0.001010
    44  C   -0.000690   0.001449
    45  C   -0.002407  -0.014070
    46  C    0.003356  -0.004671
    47  C   -0.004325  -0.041801
    48  C   -0.002970   0.013549
    49  C   -0.006369  -0.037921
    50  C   -0.002341   0.060418
    51  C    0.004805  -0.003899
    52  C    0.007455   0.001551
    53  C   -0.000490   0.000887
    54  C    0.003801   0.017179
    55  C    0.001489  -0.004073
    56  C   -0.000492  -0.014494
    57  C    0.001421  -0.008526
    58  C   -0.000043   0.000513
    59  C    0.001660  -0.001017
    60  C    0.002405   0.019053
    61  C    0.002073  -0.001048
    62  C    0.000157   0.001012
    63  C    0.001066  -0.019468
    64  C    0.003009   0.033572
    65  C    0.003343   0.007877
    66  C   -0.001159  -0.007380
    67  Cl   0.043258   0.002358
    68  Cl   0.038959   0.025966
    69  Cl   0.004124   0.052296
 Sum of Mulliken charges =  -0.00000   1.00000

 Dipole moment (field-independent basis, Debye):
    X=             -3.3785    Y=             -0.8617    Z=              0.5712  Tot=              3.5331
 Quadrupole moment (field-independent basis, Debye-Ang):
   XX=           -421.0299   YY=           -414.6225   ZZ=           -405.1865
   XY=             -1.6148   XZ=              1.9936   YZ=              2.6705

 Normal termination of Gaussian 16 at Sat Jul 16 18:51:42 2022.
