 Gaussian 16, Revision A.03,
 Gaussian 16:  ES64L-G16RevA.03 25-Dec-2016

 ------------------------------------------------
 #P opt b3lyp/6-31G(d, p) empiricaldispersion=GD3
 ------------------------------------------------

 ------------------------------
 Gaussian input prepared by ASE
 ------------------------------
 Symbolic Z-matrix:
 Charge =  0 Multiplicity = 1

 SCF Done:  E(RB3LYP) =  -3200.96448719     A.U. after   19 cycles
 SCF Done:  E(RB3LYP) =  -3200.99866073     A.U. after   15 cycles
 SCF Done:  E(RB3LYP) =  -3201.01738561     A.U. after   15 cycles
 SCF Done:  E(RB3LYP) =  -3201.01952006     A.U. after   14 cycles
 SCF Done:  E(RB3LYP) =  -3201.01964391     A.U. after   13 cycles
 SCF Done:  E(RB3LYP) =  -3201.01965264     A.U. after    9 cycles
 Optimization completed.
    -- Stationary point found.

                         Input orientation:
 ---------------------------------------------------------------------
 Center     Atomic      Atomic             Coordinates (Angstroms)
 Number     Number       Type             X           Y           Z
 ---------------------------------------------------------------------
      1          6           0       -1.720052   -0.511666    3.758811
      2          6           0       -1.695351    3.495734    1.658611
      3          6           0        0.794374   -2.030197   -3.551097
      4          6           0       -0.162992    2.425729   -3.340827
      5          6           0       -0.343080   -0.227467    3.920668
      6          6           0       -2.727635    2.569317    2.024714
      7          6           0        2.106200   -1.530823   -3.270227
      8          6           0       -0.898097    1.264875   -3.753640
      9          6           0        0.117945    1.146858    3.697507
     10          6           0       -3.599946    2.006863    1.063831
     11          6           0       -2.190733    0.992844   -3.270222
     12          6           0        2.392983   -0.142217   -3.255386
     13          6           0       -0.844016    2.115309    3.350707
     14          6           0        1.355158    0.695766   -3.730907
     15          6           0       -2.217868    1.774271    3.122756
     16          6           0        0.052201    0.201193   -4.015589
     17          6           0       -2.644137    0.478571    3.306923
     18          6           0       -0.291605   -1.159801   -3.836309
     19          6           0       -3.580091   -0.120011    2.365428
     20          6           0       -1.640664   -1.489202   -3.366296
     21          6           0       -3.284494   -1.516180    2.297836
     22          6           0       -1.799321   -2.718738   -2.679933
     23          6           0       -2.176106   -1.774053    3.201127
     24          6           0       -0.660088   -3.530923   -2.302826
     25          6           0       -1.285237   -2.779687    2.931222
     26          6           0        0.597666   -3.205001   -2.728572
     27          6           0        0.111410   -2.585867    3.221897
     28          6           0        1.740922   -3.378015   -1.856518
     29          6           0        0.585831   -1.337514    3.717426
     30          6           0        2.703147   -2.411232   -2.285320
     31          6           0        1.933115   -1.046587    3.449682
     32          6           0        3.630629   -1.920083   -1.400477
     33          6           0        2.406295    0.325434    3.327694
     34          6           0        4.033055   -0.523650   -1.455304
     35          6           0        1.509094    1.416881    3.317961
     36          6           0        3.360250    0.402282   -2.293321
     37          6           0        1.836455    2.570691    2.475595
     38          6           0        3.204828    1.779445   -1.818182
     39          6           0        0.766623    3.451676    2.003113
     40          6           0       -0.241358    4.262092   -0.127704
     41          6           0        0.177666    3.976229   -1.504062
     42          6           0        2.098630    2.610999   -2.327895
     43          6           0       -0.535684    3.227156    2.473435
     44          6           0       -1.552777    3.943436    0.315128
     45          6           0       -0.718790    3.352521   -2.416402
     46          6           0        1.227837    2.069153   -3.289059
     47          6           0       -2.490048    3.449944   -0.637761
     48          6           0       -2.061138    3.139171   -2.008069
     49          6           0       -3.498393    2.532140   -0.266688
     50          6           0       -2.796563    2.017081   -2.465536
     51          6           0       -4.033215    0.609467    1.236397
     52          6           0       -2.590131   -0.411889   -3.075402
     53          6           0       -4.318281   -0.172095    0.078990
     54          6           0       -3.610436   -0.666252   -2.129498
     55          6           0       -4.117262    0.377562   -1.251178
     56          6           0       -3.730225    1.676867   -1.416917
     57          6           0       -3.425816   -2.261846    1.095675
     58          6           0       -2.760040   -2.883637   -1.631495
     59          6           0       -2.460673   -3.335194    0.804427
     60          6           0       -2.162881   -3.647973   -0.544475
     61          6           0       -1.414601   -3.584305    1.734876
     62          6           0       -0.851068   -4.031818   -0.958406
     63          6           0       -0.094540   -3.925785    1.319492
     64          6           0        0.244051   -4.092177   -0.043839
     65          6           0        0.849528   -3.329923    2.253499
     66          6           0        1.590965   -3.723429   -0.491096
     67          6           0        2.146572   -2.949259    1.853913
     68          6           0        2.558747   -3.175336    0.464066
     69          6           0        2.729934   -1.881864    2.601942
     70          6           0        3.611078   -2.365245   -0.033422
     71          6           0        3.769876   -1.061368    2.041102
     72          6           0        4.199645   -1.298778    0.751222
     73          6           0        3.583434    0.297299    2.515400
     74          6           0        4.473223   -0.177410   -0.138057
     75          6           0        3.866179    1.369919    1.681994
     76          6           0        4.315980    1.122979    0.313949
     77          6           0        3.018452    2.512544    1.689333
     78          6           0        3.726718    2.103484   -0.541202
     79          6           0        0.878751    4.088296    0.720063
     80          6           0        1.555568    3.651116   -1.497466
     81          6           0        3.036099    3.045159    0.334360
     82          6           0        2.006887    3.802877   -0.133615
     83          6           0       -4.023919   -1.562581    0.011851
     84          6           0       -3.654652   -1.874149   -1.364425
 ---------------------------------------------------------------------

 The electronic state is 1-A.
 Alpha  occ. eigenvalues --  -10.24501 -10.24442 -10.24367 -10.24335 -10.24335
 Alpha  occ. eigenvalues --  -10.24324 -10.24320 -10.24254 -10.24225 -10.24198
 Alpha  occ. eigenvalues --  -10.24172 -10.24156 -10.24118 -10.23937 -10.23894
 Alpha  occ. eigenvalues --  -10.23872 -10.23710 -10.23691 -10.23640 -10.23573
 Alpha  occ. eigenvalues --  -10.23416 -10.23414 -10.23317 -10.23305 -10.23271
 Alpha  occ. eigenvalues --  -10.23248 -10.23182 -10.23161 -10.23145 -10.23139
 Alpha  occ. eigenvalues --  -10.23125 -10.23055 -10.23054 -10.23041 -10.22995
 Alpha  occ. eigenvalues --  -10.22961 -10.22961 -10.22913 -10.22872 -10.22869
 Alpha  occ. eigenvalues --  -10.22849 -10.22817 -10.22754 -10.22737 -10.22730
 Alpha  occ. eigenvalues --  -10.22715 -10.22701 -10.22697 -10.22675 -10.22660
 Alpha  occ. eigenvalues --  -10.22629 -10.22619 -10.22587 -10.22578 -10.22540
 Alpha  occ. eigenvalues --  -10.22513 -10.22506 -10.22494 -10.22460 -10.22454
 Alpha  occ. eigenvalues --  -10.22448 -10.22442 -10.22410 -10.22395 -10.22364
 Alpha  occ. eigenvalues --  -10.22340 -10.22340 -10.22324 -10.22306 -10.22303
 Alpha  occ. eigenvalues --  -10.22260 -10.22260 -10.22253 -10.22227 -10.22200
 Alpha  occ. eigenvalues --  -10.22118 -10.22116 -10.22062 -10.22020 -10.22005
 Alpha  occ. eigenvalues --  -10.21985 -10.21973 -10.21731 -10.21644  -0.96446
 Alpha  occ. eigenvalues --   -0.95461  -0.95003  -0.94851  -0.93111  -0.92804
 Alpha  occ. eigenvalues --   -0.92540  -0.92235  -0.91678  -0.89584  -0.89484
 Alpha  occ. eigenvalues --   -0.88921  -0.88258  -0.87651  -0.87530  -0.87232
 Alpha  occ. eigenvalues --   -0.84703  -0.83987  -0.83841  -0.83150  -0.82808
 Alpha  occ. eigenvalues --   -0.82719  -0.82500  -0.82346  -0.82246  -0.78440
 Alpha  occ. eigenvalues --   -0.78359  -0.77943  -0.77690  -0.77553  -0.77357
 Alpha  occ. eigenvalues --   -0.77313  -0.76620  -0.76421  -0.76087  -0.74655
 Alpha  occ. eigenvalues --   -0.72488  -0.72383  -0.72156  -0.71728  -0.70982
 Alpha  occ. eigenvalues --   -0.70936  -0.70251  -0.69413  -0.68988  -0.68562
 Alpha  occ. eigenvalues --   -0.67933  -0.66695  -0.65729  -0.64764  -0.64336
 Alpha  occ. eigenvalues --   -0.64035  -0.63726  -0.63255  -0.62816  -0.62549
 Alpha  occ. eigenvalues --   -0.62185  -0.61541  -0.60958  -0.60608  -0.59781
 Alpha  occ. eigenvalues --   -0.58573  -0.58143  -0.57488  -0.56766  -0.56547
 Alpha  occ. eigenvalues --   -0.56221  -0.55726  -0.54874  -0.54263  -0.54037
 Alpha  occ. eigenvalues --   -0.53269  -0.52615  -0.52288  -0.51956  -0.51610
 Alpha  occ. eigenvalues --   -0.51314  -0.51130  -0.50807  -0.50347  -0.49885
 Alpha  occ. eigenvalues --   -0.48539  -0.48157  -0.47837  -0.47648  -0.47481
 Alpha  occ. eigenvalues --   -0.47091  -0.47015  -0.46755  -0.46569  -0.46214
 Alpha  occ. eigenvalues --   -0.46140  -0.45914  -0.45861  -0.45574  -0.45371
 Alpha  occ. eigenvalues --   -0.45165  -0.44933  -0.44261  -0.44196  -0.43651
 Alpha  occ. eigenvalues --   -0.43556  -0.43434  -0.43209  -0.43179  -0.43079
 Alpha  occ. eigenvalues --   -0.42873  -0.42709  -0.42471  -0.42367  -0.42072
 Alpha  occ. eigenvalues --   -0.41835  -0.41667  -0.40979  -0.40846  -0.40405
 Alpha  occ. eigenvalues --   -0.40168  -0.40065  -0.39622  -0.39424  -0.39175
 Alpha  occ. eigenvalues --   -0.39103  -0.39022  -0.38620  -0.38487  -0.38432
 Alpha  occ. eigenvalues --   -0.38306  -0.37992  -0.37891  -0.37787  -0.37638
 Alpha  occ. eigenvalues --   -0.37493  -0.35192  -0.34983  -0.34956  -0.34796
 Alpha  occ. eigenvalues --   -0.34625  -0.34363  -0.34181  -0.33855  -0.33803
 Alpha  occ. eigenvalues --   -0.33647  -0.33517  -0.33115  -0.32894  -0.32494
 Alpha  occ. eigenvalues --   -0.32258  -0.32108  -0.31944  -0.31707  -0.31683
 Alpha  occ. eigenvalues --   -0.27074  -0.26917  -0.26802  -0.26747  -0.26706
 Alpha  occ. eigenvalues --   -0.26656  -0.26421  -0.25614  -0.25371  -0.25005
 Alpha  occ. eigenvalues --   -0.23320  -0.22797  -0.22404  -0.21911  -0.20994
 Alpha  occ. eigenvalues --   -0.20733  -0.20032
 Alpha virt. eigenvalues --   -0.14681  -0.13066  -0.11028  -0.10088  -0.08574
 Alpha virt. eigenvalues --   -0.07036  -0.06189  -0.05714  -0.05305  -0.04999
 Alpha virt. eigenvalues --   -0.04583  -0.04066  -0.03863  -0.03525  -0.02752

 Mulliken charges:
               1
     1  C   -0.027397
     2  C   -0.023634
     3  C   -0.024098
     4  C   -0.030919
     5  C    0.049614
     6  C   -0.024978
     7  C   -0.023529
     8  C   -0.033553
     9  C    0.040409
    10  C    0.062565
    11  C    0.059917
    12  C    0.053446
    13  C   -0.027153
    14  C   -0.031713
    15  C   -0.014710
    16  C   -0.030642
    17  C   -0.012168
    18  C    0.052239
    19  C   -0.019834
    20  C    0.044601
    21  C   -0.020012
    22  C   -0.022051
    23  C   -0.001935
    24  C   -0.014624
    25  C   -0.018654
    26  C   -0.013115
    27  C   -0.021743
    28  C   -0.021772
    29  C    0.050242
    30  C   -0.016887
    31  C   -0.033417
    32  C   -0.011962
    33  C   -0.025530
    34  C   -0.023108
    35  C    0.040778
    36  C    0.044557
    37  C    0.041692
    38  C    0.041440
    39  C    0.053288
    40  C   -0.027321
    41  C   -0.025474
    42  C    0.061272
    43  C   -0.032084
    44  C    0.066211
    45  C    0.069570
    46  C   -0.035654
    47  C   -0.023459
    48  C   -0.025354
    49  C   -0.025991
    50  C   -0.026188
    51  C    0.052383
    52  C    0.044107
    53  C   -0.019792
    54  C   -0.022924
    55  C   -0.003158
    56  C   -0.017782
    57  C    0.055716
    58  C   -0.013289
    59  C    0.056006
    60  C   -0.022913
    61  C   -0.023955
    62  C   -0.019857
    63  C   -0.029312
    64  C    0.050731
    65  C   -0.031078
    66  C    0.043561
    67  C    0.050746
    68  C    0.044644
    69  C   -0.021864
    70  C   -0.025986
    71  C   -0.010664
    72  C    0.003685
    73  C   -0.012729
    74  C   -0.009627
    75  C   -0.001329
    76  C   -0.003295
    77  C   -0.025600
    78  C   -0.022843
    79  C   -0.021089
    80  C   -0.024488
    81  C    0.000821
    82  C   -0.025855
    83  C   -0.020564
    84  C   -0.013585
 Sum of Mulliken charges =  -0.00000

 Dipole moment (field-independent basis, Debye):
    X=              0.0123    Y=             -0.4306    Z=              0.5957  Tot=              0.7352
 Quadrupole moment (field-independent basis, Debye-Ang):
   XX=           -449.7079   YY=           -455.9415   ZZ=           -454.5549
   XY=              1.4831   XZ=             -0.0301   YZ=              1.0950

 Normal termination of Gaussian 16 at Wed Apr 26 12:11:23 2023.
