 Gaussian 16, Revision A.03,
 Gaussian 16:  ES64L-G16RevA.03 25-Dec-2016

 ------------------------------------------------
 #P opt b3lyp/6-31G(d, p) empiricaldispersion=GD3
 ------------------------------------------------

 -----
 force
 -----
 Symbolic Z-matrix:
 Charge =  0 Multiplicity = 1

 SCF Done:  E(RB3LYP) =  -4121.40678897     A.U. after   20 cycles
 SCF Done:  E(RB3LYP) =  -4121.42000022     A.U. after   16 cycles
 SCF Done:  E(RB3LYP) =  -4121.42036430     A.U. after   11 cycles
 SCF Done:  E(RB3LYP) =  -4121.42043149     A.U. after   11 cycles
 SCF Done:  E(RB3LYP) =  -4121.42043837     A.U. after    9 cycles
 Optimization completed.
    -- Stationary point found.

                         Input orientation:
 ---------------------------------------------------------------------
 Center     Atomic      Atomic             Coordinates (Angstroms)
 Number     Number       Type             X           Y           Z
 ---------------------------------------------------------------------
      1          6           0        0.752349    1.613349    3.897909
      2          6           0        1.198557    4.181625    0.200709
      3          6           0       -1.559530   -2.941190   -2.098036
      4          6           0       -0.522112    1.142794   -3.832752
      5          6           0        2.008659    1.117224    3.476763
      6          6           0        0.238377    4.126285    1.265160
      7          6           0       -0.223823   -3.195940   -2.502062
      8          6           0       -1.737850    0.517404   -3.366607
      9          6           0        2.765783    1.883794    2.480072
     10          6           0       -1.136792    3.899354    1.013267
     11          6           0       -2.591913    1.137756   -2.440214
     12          6           0        0.538585   -2.256139   -3.266891
     13          6           0        2.203885    3.085346    2.007890
     14          6           0       -0.183368   -1.158841   -3.762626
     15          6           0        0.892900    3.516910    2.400097
     16          6           0       -1.531160   -0.897233   -3.344339
     17          6           0        0.172967    2.782589    3.316767
     18          6           0       -2.206384   -1.715763   -2.415947
     19          6           0       -1.251060    2.569472    3.114189
     20          6           0       -3.120603   -1.083216   -1.472274
     21          6           0       -1.575057    1.288298    3.658757
     22          6           0       -3.626825   -1.932596   -0.296462
     23          6           0       -0.353851    0.719171    4.197585
     24          6           0       -2.629074   -3.006230    0.103438
     25          6           0       -0.171933   -0.639995    4.205332
     26          6           0       -1.743803   -3.540508   -0.779024
     27          6           0        1.133283   -1.182208    3.929960
     28          6           0       -0.475123   -4.062649   -0.327198
     29          6           0        2.215623   -0.327132    3.578763
     30          6           0        0.414197   -3.952794   -1.441387
     31          6           0        3.235484   -0.915096    2.812062
     32          6           0        1.765577   -3.842393   -1.236299
     33          6           0        4.052305   -0.129545    1.898893
     34          6           0        2.577042   -2.982521   -2.088891
     35          6           0        3.755626    1.223387    1.621652
     36          6           0        1.981322   -2.108041   -3.032251
     37          6           0        4.014726    1.723944    0.268181
     38          6           0        2.621400   -0.811149   -3.276758
     39          6           0        3.270303    2.880085   -0.231299
     40          6           0        1.708062    3.495466   -2.073007
     41          6           0        1.236257    2.673107   -3.190261
     42          6           0        1.820530    0.316801   -3.776627
     43          6           0        2.414078    3.554275    0.652662
     44          6           0        0.791005    4.087355   -1.161748
     45          6           0       -0.148870    2.424357   -3.361933
     46          6           0        0.449477    0.110414   -4.039965
     47          6           0       -0.602074    3.955552   -1.416777
     48          6           0       -1.079995    3.103801   -2.512470
     49          6           0       -1.538937    3.887666   -0.358707
     50          6           0       -2.293529    2.508081   -2.120544
     51          6           0       -1.899163    3.080667    1.963293
     52          6           0       -3.304817    0.295235   -1.481471
     53          6           0       -2.990191    2.300734    1.470953
     54          6           0       -4.016722    0.991875   -0.312185
     55          6           0       -3.336315    2.294450    0.080914
     56          6           0       -2.622072    3.036900   -0.806438
     57          6           0       -2.564170    0.450805    3.079746
     58          6           0       -3.709867   -1.131945    0.984780
     59          6           0       -2.361500   -0.993069    3.079136
     60          6           0       -2.927951   -1.749505    2.020740
     61          6           0       -1.176165   -1.522711    3.654813
     62          6           0       -2.259198   -2.890228    1.475751
     63          6           0       -0.487234   -2.633879    3.085786
     64          6           0       -0.972497   -3.309856    1.943408
     65          6           0        0.938524   -2.440001    3.281249
     66          6           0       -0.022163   -3.892380    1.003505
     67          6           0        1.886057   -2.964236    2.376678
     68          6           0        1.418608   -3.743996    1.227298
     69          6           0        3.115592   -2.244126    2.290673
     70          6           0        2.282906   -3.820229    0.105625
     71          6           0        3.943929   -2.324034    1.117478
     72          6           0        3.533928   -3.095700    0.048387
     73          6           0        4.544084   -1.022639    0.895338
     74          6           0        3.715845   -2.602941   -1.311848
     75          6           0        4.745109   -0.559273   -0.397164
     76          6           0        4.311382   -1.370619   -1.531358
     77          6           0        4.516482    0.811857   -0.699782
     78          6           0        3.794270   -0.501475   -2.539752
     79          6           0        2.945460    2.971583   -1.627863
     80          6           0        2.198325    1.656762   -3.437509
     81          6           0        4.051248    0.856210   -2.078992
     82          6           0        3.290609    1.895140   -2.525137
     83          6           0       -3.314047    1.022286    2.011260
     84          6           0       -3.895992    0.209541    0.977429
     85         17           0       -5.259700   -2.689110   -0.747042
     86         17           0       -5.786296    1.310633   -0.771132
 ---------------------------------------------------------------------

 The electronic state is 1-A.
 Alpha  occ. eigenvalues -- -101.54817-101.54725 -10.29916 -10.29759 -10.25209
 Alpha  occ. eigenvalues --  -10.25146 -10.24983 -10.24898 -10.24843 -10.24841
 Alpha  occ. eigenvalues --  -10.24806 -10.24780 -10.24766 -10.24755 -10.24747
 Alpha  occ. eigenvalues --  -10.24736 -10.24718 -10.24666 -10.24656 -10.24550
 Alpha  occ. eigenvalues --  -10.24403 -10.24357 -10.24341 -10.24303 -10.24272
 Alpha  occ. eigenvalues --  -10.24263 -10.24185 -10.24168 -10.24097 -10.24068
 Alpha  occ. eigenvalues --  -10.24065 -10.23989 -10.23951 -10.23937 -10.23896
 Alpha  occ. eigenvalues --  -10.23855 -10.23746 -10.23659 -10.23575 -10.23544
 Alpha  occ. eigenvalues --  -10.23543 -10.23502 -10.23474 -10.23430 -10.23425
 Alpha  occ. eigenvalues --  -10.23381 -10.23373 -10.23372 -10.23346 -10.23277
 Alpha  occ. eigenvalues --  -10.23266 -10.23245 -10.23234 -10.23214 -10.23172
 Alpha  occ. eigenvalues --  -10.23167 -10.23161 -10.23151 -10.23147 -10.23118
 Alpha  occ. eigenvalues --  -10.23095 -10.23090 -10.23029 -10.22986 -10.22976
 Alpha  occ. eigenvalues --  -10.22966 -10.22961 -10.22941 -10.22939 -10.22932
 Alpha  occ. eigenvalues --  -10.22916 -10.22896 -10.22771 -10.22761 -10.22723
 Alpha  occ. eigenvalues --  -10.22654 -10.22595 -10.22558 -10.22488 -10.22407
 Alpha  occ. eigenvalues --  -10.22364 -10.22339 -10.22253 -10.22157 -10.22146
 Alpha  occ. eigenvalues --  -10.22051  -9.46353  -9.46261  -7.22789  -7.22697
 Alpha  occ. eigenvalues --   -7.21760  -7.21747  -7.21667  -7.21656  -0.97280
 Alpha  occ. eigenvalues --   -0.96182  -0.95761  -0.95515  -0.93995  -0.93511
 Alpha  occ. eigenvalues --   -0.93227  -0.92898  -0.92362  -0.90436  -0.90192
 Alpha  occ. eigenvalues --   -0.89839  -0.89272  -0.88411  -0.88320  -0.87980
 Alpha  occ. eigenvalues --   -0.86066  -0.84954  -0.84698  -0.84586  -0.84043
 Alpha  occ. eigenvalues --   -0.83610  -0.83379  -0.83029  -0.82859  -0.81930
 Alpha  occ. eigenvalues --   -0.81374  -0.79108  -0.79002  -0.78510  -0.78266
 Alpha  occ. eigenvalues --   -0.77988  -0.77946  -0.77621  -0.77047  -0.76877
 Alpha  occ. eigenvalues --   -0.76386  -0.74986  -0.73151  -0.72993  -0.72652
 Alpha  occ. eigenvalues --   -0.72088  -0.71534  -0.71363  -0.70904  -0.70043
 Alpha  occ. eigenvalues --   -0.69623  -0.69071  -0.68550  -0.67323  -0.66311
 Alpha  occ. eigenvalues --   -0.65585  -0.65024  -0.64637  -0.64388  -0.63794
 Alpha  occ. eigenvalues --   -0.63380  -0.63203  -0.62947  -0.62090  -0.61663
 Alpha  occ. eigenvalues --   -0.61352  -0.60520  -0.59238  -0.58822  -0.58153
 Alpha  occ. eigenvalues --   -0.57478  -0.57244  -0.56886  -0.56504  -0.55492
 Alpha  occ. eigenvalues --   -0.54879  -0.54682  -0.53996  -0.53372  -0.53124
 Alpha  occ. eigenvalues --   -0.52771  -0.52457  -0.52050  -0.51956  -0.51458
 Alpha  occ. eigenvalues --   -0.51091  -0.50535  -0.49237  -0.49168  -0.49064
 Alpha  occ. eigenvalues --   -0.48302  -0.48199  -0.48010  -0.47917  -0.47665
 Alpha  occ. eigenvalues --   -0.47585  -0.47136  -0.46993  -0.46534  -0.46470
 Alpha  occ. eigenvalues --   -0.46364  -0.46187  -0.45965  -0.45714  -0.45449
 Alpha  occ. eigenvalues --   -0.45168  -0.44885  -0.44570  -0.44089  -0.44005
 Alpha  occ. eigenvalues --   -0.43981  -0.43786  -0.43631  -0.43435  -0.43247
 Alpha  occ. eigenvalues --   -0.43091  -0.42702  -0.42663  -0.42426  -0.42081
 Alpha  occ. eigenvalues --   -0.41734  -0.41582  -0.41313  -0.41078  -0.40812
 Alpha  occ. eigenvalues --   -0.40595  -0.40419  -0.40076  -0.40000  -0.39642
 Alpha  occ. eigenvalues --   -0.39527  -0.39416  -0.39138  -0.38834  -0.38618
 Alpha  occ. eigenvalues --   -0.38563  -0.38448  -0.38149  -0.37279  -0.36446
 Alpha  occ. eigenvalues --   -0.36407  -0.35938  -0.35590  -0.35467  -0.35374
 Alpha  occ. eigenvalues --   -0.35006  -0.34923  -0.34815  -0.34468  -0.34299
 Alpha  occ. eigenvalues --   -0.34074  -0.33734  -0.33397  -0.33130  -0.32773
 Alpha  occ. eigenvalues --   -0.32503  -0.32149  -0.31557  -0.31328  -0.31048
 Alpha  occ. eigenvalues --   -0.30625  -0.30205  -0.30132  -0.27606  -0.27406
 Alpha  occ. eigenvalues --   -0.27337  -0.27237  -0.27080  -0.26991  -0.26416
 Alpha  occ. eigenvalues --   -0.25811  -0.25084  -0.24703  -0.23362  -0.23113
 Alpha  occ. eigenvalues --   -0.22312  -0.21406  -0.21312  -0.20501
 Alpha virt. eigenvalues --   -0.14450  -0.13805  -0.11706  -0.10383  -0.10042
 Alpha virt. eigenvalues --   -0.08460  -0.07001  -0.06401  -0.05965  -0.05538
 Alpha virt. eigenvalues --   -0.05156  -0.04951  -0.04323  -0.03779  -0.03506

 Mulliken charges:
               1
     1  C   -0.027104
     2  C   -0.023150
     3  C   -0.039515
     4  C   -0.029219
     5  C    0.050265
     6  C   -0.024159
     7  C   -0.015476
     8  C   -0.033988
     9  C    0.042118
    10  C    0.063174
    11  C    0.093015
    12  C    0.052616
    13  C   -0.026937
    14  C   -0.032585
    15  C   -0.013017
    16  C   -0.032684
    17  C   -0.012267
    18  C    0.087274
    19  C   -0.016222
    20  C    0.105447
    21  C   -0.016455
    22  C   -0.355467
    23  C    0.000448
    24  C    0.072112
    25  C   -0.016939
    26  C    0.000292
    27  C   -0.021454
    28  C   -0.020194
    29  C    0.051611
    30  C   -0.017517
    31  C   -0.032842
    32  C   -0.010037
    33  C   -0.025845
    34  C   -0.022582
    35  C    0.040409
    36  C    0.046276
    37  C    0.042806
    38  C    0.040734
    39  C    0.053298
    40  C   -0.027173
    41  C   -0.027581
    42  C    0.058635
    43  C   -0.033322
    44  C    0.068515
    45  C    0.069724
    46  C   -0.033066
    47  C   -0.025203
    48  C   -0.017751
    49  C   -0.026059
    50  C   -0.041170
    51  C    0.046136
    52  C    0.099497
    53  C    0.010792
    54  C   -0.355043
    55  C    0.077133
    56  C    0.000879
    57  C    0.048633
    58  C    0.088246
    59  C    0.048375
    60  C    0.002104
    61  C   -0.020692
    62  C    0.010731
    63  C   -0.026267
    64  C    0.043185
    65  C   -0.031715
    66  C    0.043903
    67  C    0.052797
    68  C    0.044314
    69  C   -0.021690
    70  C   -0.025427
    71  C   -0.009671
    72  C    0.003954
    73  C   -0.011845
    74  C   -0.009624
    75  C   -0.000642
    76  C   -0.002255
    77  C   -0.025145
    78  C   -0.021782
    79  C   -0.019959
    80  C   -0.022932
    81  C   -0.001250
    82  C   -0.024069
    83  C    0.004198
    84  C    0.090300
    85  Cl  -0.014154
    86  Cl  -0.012802
 Sum of Mulliken charges =  -0.00000

 Dipole moment (field-independent basis, Debye):
    X=              3.1661    Y=              0.1758    Z=              1.9020  Tot=              3.6977
 Quadrupole moment (field-independent basis, Debye-Ang):
   XX=           -496.8002   YY=           -479.7556   ZZ=           -477.0805
   XY=             -4.3683   XZ=             -5.9602   YZ=              1.6759

 Normal termination of Gaussian 16 at Sun Jun 26 21:59:57 2022.
