 Gaussian 16, Revision A.03,
 Gaussian 16:  ES64L-G16RevA.03 25-Dec-2016

 ------------------------------------------------
 #P opt b3lyp/6-31G(d, p) empiricaldispersion=GD3
 ------------------------------------------------

 -----
 force
 -----
 Symbolic Z-matrix:
 Charge =  0 Multiplicity = 1

 SCF Done:  E(RB3LYP) =  -4121.39232741     A.U. after   28 cycles
 SCF Done:  E(RB3LYP) =  -4121.40543499     A.U. after   17 cycles
 SCF Done:  E(RB3LYP) =  -4121.40586835     A.U. after   13 cycles
 SCF Done:  E(RB3LYP) =  -4121.40596856     A.U. after   12 cycles
 SCF Done:  E(RB3LYP) =  -4121.40597958     A.U. after   11 cycles
 Optimization completed.
    -- Stationary point found.

                         Input orientation:
 ---------------------------------------------------------------------
 Center     Atomic      Atomic             Coordinates (Angstroms)
 Number     Number       Type             X           Y           Z
 ---------------------------------------------------------------------
      1          6           0       -3.240168   -0.537854   -3.001564
      2          6           0        1.098507   -1.611423   -3.630150
      3          6           0        0.094401    0.113844    4.083204
      4          6           0        3.539397   -1.407880    1.286907
      5          6           0       -2.739586    0.785727   -3.099310
      6          6           0       -0.103702   -2.381162   -3.547055
      7          6           0        0.684953    1.376934    3.759635
      8          6           0        2.403840   -2.005040    2.114570
      9          6           0       -1.398351    0.984648   -3.650518
     10          6           0       -0.268059   -3.397271   -2.571550
     11          6           0        1.603092   -3.058309    1.696749
     12          6           0        1.855468    1.472930    2.967934
     13          6           0       -0.682822   -0.159553   -4.072988
     14          6           0        2.505808    0.244475    2.690493
     15          6           0       -1.194582   -1.489063   -3.888117
     16          6           0        1.928502   -1.017512    3.026434
     17          6           0       -2.444490   -1.671986   -3.347314
     18          6           0        0.658392   -1.115289    3.649741
     19          6           0       -2.666893   -2.741606   -2.379279
     20          6           0       -0.203056   -2.233003    3.283100
     21          6           0       -3.670566   -2.287473   -1.472600
     22          6           0       -1.603754   -2.039825    3.429102
     23          6           0       -4.072165   -0.953174   -1.889447
     24          6           0       -2.156190   -0.743740    3.758068
     25          6           0       -4.506371   -0.042095   -0.961139
     26          6           0       -1.336881    0.301068    4.091253
     27          6           0       -4.141775    1.342838   -1.104485
     28          6           0       -1.645657    1.651319    3.660395
     29          6           0       -3.279746    1.764305   -2.158174
     30          6           0       -0.390761    2.333141    3.584210
     31          6           0       -2.552650    2.942730   -1.919378
     32          6           0       -0.228519    3.389594    2.724762
     33          6           0       -1.267778    3.182464   -2.549955
     34          6           0        1.025842    3.581985    2.011657
     35          6           0       -0.620336    2.174160   -3.303150
     36          6           0        2.035336    2.580886    2.035713
     37          6           0        0.841640    2.104658   -3.239982
     38          6           0        2.844236    2.374621    0.839008
     39          6           0        1.513653    0.841899   -3.509990
     40          6           0        3.029219   -0.798768   -2.400408
     41          6           0        3.662760   -0.756163   -1.106038
     42          6           0        3.497514    1.077992    0.620262
     43          6           0        0.749653   -0.246978   -3.959417
     44          6           0        2.204815   -1.890420   -2.783891
     45          6           0        3.434256   -1.741493   -0.173618
     46          6           0        3.356210    0.084707    1.550519
     47          6           0        2.077877   -2.972151   -1.875848
     48          6           0        2.675275   -2.885198   -0.547020
     49          6           0        0.884477   -3.734056   -1.796944
     50          6           0        1.845800   -3.576272    0.361846
     51          6           0       -1.598897   -3.574478   -1.962432
     52          6           0        0.260771   -3.197078    2.290481
     53          6           0       -1.680626   -4.049373   -0.620946
     54          6           0       -0.716501   -3.894181    1.540426
     55          6           0       -0.476222   -4.277581    0.156988
     56          6           0        0.761960   -4.137605   -0.409387
     57          6           0       -3.667421   -2.645268   -0.095338
     58          6           0       -2.546322   -2.656787    2.549653
     59          6           0       -4.125674   -1.659030    0.898630
     60          6           0       -3.584553   -1.695445    2.205923
     61          6           0       -4.546935   -0.378912    0.444569
     62          6           0       -3.330873   -0.500629    2.949591
     63          6           0       -4.256982    0.816804    1.166250
     64          6           0       -3.577098    0.795815    2.406300
     65          6           0       -4.032816    1.888780    0.209544
     66          6           0       -2.690845    1.915912    2.745133
     67          6           0       -3.176947    2.972351    0.494608
     68          6           0       -2.508980    3.025232    1.799843
     69          6           0       -2.566883    3.591202   -0.637451
     70          6           0       -1.321652    3.794648    1.882953
     71          6           0       -1.337774    4.321017   -0.513281
     72          6           0       -0.726133    4.426360    0.720672
     73          6           0       -0.544737    4.084137   -1.708512
     74          6           0        0.719377    4.306833    0.825455
     75          6           0        0.836742    3.991537   -1.618803
     76          6           0        1.490788    4.098557   -0.318646
     77          6           0        1.528511    3.024957   -2.403930
     78          6           0        2.582209    3.189405   -0.288142
     79          6           0        2.729176    0.527100   -2.810156
     80          6           0        4.010430    0.684870   -0.758148
     81          6           0        2.697433    2.626105   -1.643146
     82          6           0        3.290886    1.428826   -1.858411
     83          6           0       -2.684832   -3.598285    0.281694
     84          6           0       -2.104099   -3.572833    1.621517
     85         17           0        5.851959    0.968180   -0.856420
     86         17           0        5.180790   -1.986462    1.975337
 ---------------------------------------------------------------------

 The electronic state is 1-A.
 Alpha  occ. eigenvalues -- -101.54375-101.54311 -10.29577 -10.29560 -10.25157
 Alpha  occ. eigenvalues --  -10.25146 -10.24986 -10.24981 -10.24966 -10.24955
 Alpha  occ. eigenvalues --  -10.24924 -10.24789 -10.24759 -10.24723 -10.24630
 Alpha  occ. eigenvalues --  -10.24589 -10.24572 -10.24537 -10.24495 -10.24486
 Alpha  occ. eigenvalues --  -10.24439 -10.24419 -10.24402 -10.24271 -10.24236
 Alpha  occ. eigenvalues --  -10.24229 -10.24221 -10.24120 -10.24110 -10.24075
 Alpha  occ. eigenvalues --  -10.23993 -10.23983 -10.23980 -10.23971 -10.23909
 Alpha  occ. eigenvalues --  -10.23870 -10.23802 -10.23800 -10.23780 -10.23705
 Alpha  occ. eigenvalues --  -10.23639 -10.23568 -10.23567 -10.23547 -10.23535
 Alpha  occ. eigenvalues --  -10.23515 -10.23484 -10.23447 -10.23411 -10.23353
 Alpha  occ. eigenvalues --  -10.23332 -10.23329 -10.23311 -10.23256 -10.23246
 Alpha  occ. eigenvalues --  -10.23244 -10.23184 -10.23181 -10.23176 -10.23155
 Alpha  occ. eigenvalues --  -10.23144 -10.23089 -10.23085 -10.23074 -10.23053
 Alpha  occ. eigenvalues --  -10.23046 -10.23000 -10.22991 -10.22985 -10.22975
 Alpha  occ. eigenvalues --  -10.22969 -10.22960 -10.22955 -10.22916 -10.22903
 Alpha  occ. eigenvalues --  -10.22852 -10.22850 -10.22813 -10.22768 -10.22751
 Alpha  occ. eigenvalues --  -10.22736 -10.22720 -10.22704 -10.22671 -10.22662
 Alpha  occ. eigenvalues --  -10.22456  -9.45899  -9.45848  -7.22326  -7.22271
 Alpha  occ. eigenvalues --   -7.21307  -7.21305  -7.21263  -7.21249  -0.97220
 Alpha  occ. eigenvalues --   -0.96073  -0.95866  -0.95731  -0.93853  -0.93628
 Alpha  occ. eigenvalues --   -0.93498  -0.92930  -0.92487  -0.90468  -0.90315
 Alpha  occ. eigenvalues --   -0.89676  -0.89001  -0.88688  -0.88374  -0.88138
 Alpha  occ. eigenvalues --   -0.85939  -0.85465  -0.84905  -0.84091  -0.83715
 Alpha  occ. eigenvalues --   -0.83526  -0.83449  -0.83293  -0.83093  -0.81508
 Alpha  occ. eigenvalues --   -0.81418  -0.79121  -0.79025  -0.78474  -0.78326
 Alpha  occ. eigenvalues --   -0.78156  -0.77987  -0.77910  -0.77203  -0.76706
 Alpha  occ. eigenvalues --   -0.76511  -0.75041  -0.73174  -0.73027  -0.72766
 Alpha  occ. eigenvalues --   -0.72306  -0.71646  -0.71473  -0.70909  -0.70060
 Alpha  occ. eigenvalues --   -0.69665  -0.69226  -0.68543  -0.67398  -0.66498
 Alpha  occ. eigenvalues --   -0.65519  -0.65074  -0.64719  -0.64460  -0.63916
 Alpha  occ. eigenvalues --   -0.63699  -0.63206  -0.62872  -0.62274  -0.61748
 Alpha  occ. eigenvalues --   -0.61322  -0.60650  -0.59245  -0.58847  -0.58159
 Alpha  occ. eigenvalues --   -0.57729  -0.57212  -0.57038  -0.56456  -0.55673
 Alpha  occ. eigenvalues --   -0.55023  -0.54752  -0.54037  -0.53392  -0.53062
 Alpha  occ. eigenvalues --   -0.52766  -0.52395  -0.52192  -0.52113  -0.51495
 Alpha  occ. eigenvalues --   -0.51045  -0.50648  -0.49255  -0.49107  -0.48887
 Alpha  occ. eigenvalues --   -0.48541  -0.48327  -0.47973  -0.47784  -0.47764
 Alpha  occ. eigenvalues --   -0.47474  -0.47294  -0.47061  -0.46915  -0.46676
 Alpha  occ. eigenvalues --   -0.46487  -0.46157  -0.46054  -0.45661  -0.45361
 Alpha  occ. eigenvalues --   -0.44907  -0.44887  -0.44616  -0.44451  -0.44184
 Alpha  occ. eigenvalues --   -0.44048  -0.43887  -0.43606  -0.43472  -0.43413
 Alpha  occ. eigenvalues --   -0.43148  -0.42921  -0.42660  -0.42529  -0.42110
 Alpha  occ. eigenvalues --   -0.41821  -0.41686  -0.41336  -0.41007  -0.40906
 Alpha  occ. eigenvalues --   -0.40811  -0.40276  -0.40177  -0.39907  -0.39705
 Alpha  occ. eigenvalues --   -0.39437  -0.39393  -0.39158  -0.38949  -0.38781
 Alpha  occ. eigenvalues --   -0.38610  -0.38530  -0.38407  -0.37078  -0.36726
 Alpha  occ. eigenvalues --   -0.36201  -0.35926  -0.35735  -0.35732  -0.35457
 Alpha  occ. eigenvalues --   -0.35192  -0.35053  -0.34605  -0.34526  -0.34410
 Alpha  occ. eigenvalues --   -0.34158  -0.33575  -0.33155  -0.33027  -0.32884
 Alpha  occ. eigenvalues --   -0.32751  -0.32600  -0.31276  -0.31012  -0.30769
 Alpha  occ. eigenvalues --   -0.30434  -0.30273  -0.30027  -0.27558  -0.27470
 Alpha  occ. eigenvalues --   -0.27396  -0.27285  -0.27201  -0.26924  -0.26723
 Alpha  occ. eigenvalues --   -0.25951  -0.25130  -0.24778  -0.23575  -0.22946
 Alpha  occ. eigenvalues --   -0.22610  -0.22110  -0.21147  -0.19396
 Alpha virt. eigenvalues --   -0.15295  -0.13344  -0.12075  -0.10913  -0.09450
 Alpha virt. eigenvalues --   -0.08815  -0.06966  -0.06578  -0.06090  -0.05634
 Alpha virt. eigenvalues --   -0.04968  -0.04903  -0.04503  -0.04242  -0.03485

 Mulliken charges:
               1
     1  C   -0.025852
     2  C   -0.022896
     3  C   -0.016660
     4  C   -0.367245
     5  C    0.046987
     6  C   -0.025462
     7  C   -0.020474
     8  C    0.044509
     9  C    0.040667
    10  C    0.066883
    11  C    0.069339
    12  C    0.049916
    13  C   -0.027680
    14  C    0.006053
    15  C   -0.013535
    16  C    0.016524
    17  C   -0.011572
    18  C    0.041864
    19  C   -0.019784
    20  C    0.044610
    21  C   -0.017281
    22  C   -0.019223
    23  C   -0.001074
    24  C   -0.011270
    25  C   -0.019065
    26  C   -0.012390
    27  C   -0.021894
    28  C   -0.022252
    29  C    0.052051
    30  C   -0.017090
    31  C   -0.034611
    32  C   -0.008681
    33  C   -0.027750
    34  C   -0.022334
    35  C    0.038535
    36  C    0.042204
    37  C    0.043445
    38  C    0.069102
    39  C    0.043400
    40  C    0.001818
    41  C    0.072684
    42  C    0.120367
    43  C   -0.028781
    44  C    0.062461
    45  C    0.150466
    46  C    0.079164
    47  C   -0.025978
    48  C    0.007190
    49  C   -0.030475
    50  C   -0.049556
    51  C    0.053113
    52  C    0.042166
    53  C   -0.018712
    54  C   -0.024116
    55  C    0.002351
    56  C   -0.013476
    57  C    0.056465
    58  C   -0.013485
    59  C    0.057512
    60  C   -0.024391
    61  C   -0.023567
    62  C   -0.021194
    63  C   -0.029343
    64  C    0.052029
    65  C   -0.031682
    66  C    0.046258
    67  C    0.050757
    68  C    0.046681
    69  C   -0.023051
    70  C   -0.025044
    71  C   -0.010012
    72  C    0.002999
    73  C   -0.011392
    74  C   -0.010176
    75  C   -0.002624
    76  C    0.000912
    77  C   -0.022837
    78  C   -0.040737
    79  C    0.011927
    80  C   -0.359604
    81  C    0.003580
    82  C    0.074438
    83  C   -0.019443
    84  C   -0.012025
    85  Cl  -0.026933
    86  Cl  -0.026713
 Sum of Mulliken charges =  -0.00000

 Dipole moment (field-independent basis, Debye):
    X=             -3.8352    Y=              0.2248    Z=             -0.0595  Tot=              3.8423
 Quadrupole moment (field-independent basis, Debye-Ang):
   XX=           -502.7105   YY=           -477.2660   ZZ=           -476.0303
   XY=              5.0476   XZ=             -1.8553   YZ=              2.4975

 Normal termination of Gaussian 16 at Mon Jun 27 23:02:19 2022.
