 Gaussian 16, Revision A.03,
 Gaussian 16:  ES64L-G16RevA.03 25-Dec-2016

 ------------------------------------------------
 #P opt b3lyp/6-31G(d, p) empiricaldispersion=GD3
 ------------------------------------------------

 -----
 force
 -----
 Symbolic Z-matrix:
 Charge =  0 Multiplicity = 1

 SCF Done:  E(RB3LYP) =  -4121.40176270     A.U. after   20 cycles
 SCF Done:  E(RB3LYP) =  -4121.41515857     A.U. after   15 cycles
 SCF Done:  E(RB3LYP) =  -4121.41554108     A.U. after   13 cycles
 SCF Done:  E(RB3LYP) =  -4121.41561056     A.U. after   11 cycles
 SCF Done:  E(RB3LYP) =  -4121.41561788     A.U. after    9 cycles
 Optimization completed.
    -- Stationary point found.

                         Input orientation:
 ---------------------------------------------------------------------
 Center     Atomic      Atomic             Coordinates (Angstroms)
 Number     Number       Type             X           Y           Z
 ---------------------------------------------------------------------
      1          6           0       -1.875290   -0.704857    3.841261
      2          6           0       -4.232122    1.609108    0.745669
      3          6           0        2.117050   -1.546945   -2.862684
      4          6           0       -1.618662    0.873617   -3.849798
      5          6           0       -1.102388    0.483229    3.865643
      6          6           0       -4.403556    0.333880    1.383108
      7          6           0        2.673001   -0.227973   -2.770710
      8          6           0       -1.288196   -0.523033   -3.911560
      9          6           0       -1.666151    1.698038    3.263642
     10          6           0       -4.493963   -0.864979    0.639405
     11          6           0       -2.105485   -1.506692   -3.322461
     12          6           0        1.932359    0.919586   -3.160214
     13          6           0       -2.957105    1.619763    2.711887
     14          6           0        0.703224    0.663882   -3.814992
     15          6           0       -3.677094    0.380602    2.633938
     16          6           0        0.154118   -0.642665   -3.911624
     17          6           0       -3.138521   -0.764650    3.172891
     18          6           0        0.799198   -1.770871   -3.350993
     19          6           0       -3.253783   -2.027912    2.460838
     20          6           0       -0.010665   -2.836264   -2.775085
     21          6           0       -2.081471   -2.792372    2.759841
     22          6           0        0.608167   -3.631485   -1.778221
     23          6           0       -1.263506   -2.007012    3.666139
     24          6           0        1.918507   -3.323628   -1.254349
     25          6           0        0.104112   -2.132790    3.637339
     26          6           0        2.666333   -2.331024   -1.805404
     27          6           0        0.922896   -0.964061    3.807051
     28          6           0        3.692514   -1.546015   -1.007601
     29          6           0        0.345216    0.321698    3.925052
     30          6           0        3.589812   -0.193249   -1.673662
     31          6           0        1.168651    1.402599    3.527025
     32          6           0        3.778351    0.962322   -0.996158
     33          6           0        0.592873    2.647217    3.028188
     34          6           0        3.074754    2.152961   -1.388496
     35          6           0       -0.788370    2.769344    2.770438
     36          6           0        2.100443    2.160060   -2.423432
     37          6           0       -1.207014    3.612306    1.643344
     38          6           0        0.986028    3.105784   -2.331866
     39          6           0       -2.495301    3.369148    0.997414
     40          6           0       -3.432839    2.764449   -1.232600
     41          6           0       -2.719249    2.565035   -2.499580
     42          6           0       -0.287956    2.795493   -3.005252
     43          6           0       -3.348608    2.405734    1.557419
     44          6           0       -4.222498    1.726847   -0.672908
     45          6           0       -2.792264    1.317195   -3.181611
     46          6           0       -0.389926    1.611314   -3.756515
     47          6           0       -4.407216    0.530760   -1.425515
     48          6           0       -3.671672    0.322748   -2.679170
     49          6           0       -4.561470   -0.719771   -0.786778
     50          6           0       -3.363385   -1.056493   -2.796163
     51          6           0       -3.885777   -2.086014    1.193711
     52          6           0       -1.468617   -2.703491   -2.747536
     53          6           0       -3.370297   -3.067993    0.295783
     54          6           0       -2.174594   -3.385410   -1.729288
     55          6           0       -3.384288   -2.836110   -1.140531
     56          6           0       -3.965849   -1.714477   -1.660311
     57          6           0       -1.478548   -3.654150    1.802140
     58          6           0       -0.134370   -4.192051   -0.689837
     59          6           0       -0.012601   -3.775040    1.774141
     60          6           0        0.642195   -4.068483    0.537798
     61          6           0        0.745423   -3.026383    2.698378
     62          6           0        1.898574   -3.513339    0.194792
     63          6           0        1.990476   -2.415835    2.326253
     64          6           0        2.556961   -2.573925    1.045201
     65          6           0        2.112167   -1.164987    3.024911
     66          6           0        3.329034   -1.469009    0.482711
     67          6           0        2.836608   -0.094125    2.477663
     68          6           0        3.487173   -0.277348    1.182818
     69          6           0        2.427995    1.204635    2.906978
     70          6           0        4.074165    0.964725    0.492283
     71          6           0        2.715707    2.378778    2.100459
     72          6           0        3.400659    2.259164    0.922064
     73          6           0        1.583010    3.273449    2.207634
     74          6           0        2.949446    2.986691   -0.232553
     75          6           0        1.187250    4.035371    1.118281
     76          6           0        1.889358    3.881471   -0.145756
     77          6           0       -0.198390    4.232559    0.858059
     78          6           0        0.939512    3.964705   -1.209012
     79          6           0       -2.646522    3.608624   -0.411932
     80          6           0       -1.515359    3.307819   -2.460815
     81          6           0       -0.333238    4.319911   -0.588419
     82          6           0       -1.510775    4.017034   -1.201350
     83          6           0       -2.204177   -3.822200    0.590338
     84          6           0       -1.502415   -4.070553   -0.668094
     85         17           0        5.379121   -2.294990   -1.192961
     86         17           0        5.896721    1.047698    0.854458
 ---------------------------------------------------------------------

 The electronic state is 1-A.
 Alpha  occ. eigenvalues -- -101.54598-101.54582 -10.29904 -10.29608 -10.25383
 Alpha  occ. eigenvalues --  -10.25229 -10.25157 -10.25035 -10.24972 -10.24924
 Alpha  occ. eigenvalues --  -10.24844 -10.24783 -10.24765 -10.24661 -10.24594
 Alpha  occ. eigenvalues --  -10.24577 -10.24568 -10.24563 -10.24546 -10.24462
 Alpha  occ. eigenvalues --  -10.24424 -10.24257 -10.24196 -10.24183 -10.24142
 Alpha  occ. eigenvalues --  -10.24079 -10.23994 -10.23950 -10.23889 -10.23866
 Alpha  occ. eigenvalues --  -10.23817 -10.23808 -10.23783 -10.23781 -10.23721
 Alpha  occ. eigenvalues --  -10.23691 -10.23671 -10.23632 -10.23613 -10.23581
 Alpha  occ. eigenvalues --  -10.23578 -10.23575 -10.23538 -10.23529 -10.23524
 Alpha  occ. eigenvalues --  -10.23488 -10.23425 -10.23418 -10.23417 -10.23407
 Alpha  occ. eigenvalues --  -10.23333 -10.23322 -10.23314 -10.23294 -10.23291
 Alpha  occ. eigenvalues --  -10.23242 -10.23241 -10.23200 -10.23162 -10.23110
 Alpha  occ. eigenvalues --  -10.23070 -10.23061 -10.23041 -10.23040 -10.23029
 Alpha  occ. eigenvalues --  -10.22995 -10.22972 -10.22966 -10.22945 -10.22936
 Alpha  occ. eigenvalues --  -10.22929 -10.22921 -10.22848 -10.22804 -10.22751
 Alpha  occ. eigenvalues --  -10.22746 -10.22739 -10.22735 -10.22703 -10.22698
 Alpha  occ. eigenvalues --  -10.22660 -10.22591 -10.22535 -10.22490 -10.22446
 Alpha  occ. eigenvalues --  -10.22193  -9.46135  -9.46121  -7.22570  -7.22551
 Alpha  occ. eigenvalues --   -7.21542  -7.21531  -7.21530  -7.21519  -0.97221
 Alpha  occ. eigenvalues --   -0.96142  -0.95812  -0.95500  -0.93843  -0.93622
 Alpha  occ. eigenvalues --   -0.93197  -0.92898  -0.92479  -0.90639  -0.90279
 Alpha  occ. eigenvalues --   -0.89555  -0.88980  -0.88726  -0.88166  -0.88037
 Alpha  occ. eigenvalues --   -0.86194  -0.84990  -0.84683  -0.84245  -0.84033
 Alpha  occ. eigenvalues --   -0.83654  -0.83480  -0.83161  -0.83024  -0.81913
 Alpha  occ. eigenvalues --   -0.81224  -0.79056  -0.78828  -0.78423  -0.78245
 Alpha  occ. eigenvalues --   -0.78123  -0.77968  -0.77801  -0.77135  -0.76820
 Alpha  occ. eigenvalues --   -0.76353  -0.75081  -0.73086  -0.72831  -0.72684
 Alpha  occ. eigenvalues --   -0.72291  -0.71577  -0.71414  -0.70795  -0.70039
 Alpha  occ. eigenvalues --   -0.69628  -0.69131  -0.68517  -0.67353  -0.66509
 Alpha  occ. eigenvalues --   -0.65470  -0.65002  -0.64655  -0.64278  -0.63912
 Alpha  occ. eigenvalues --   -0.63559  -0.63197  -0.62805  -0.62077  -0.61714
 Alpha  occ. eigenvalues --   -0.61289  -0.60420  -0.59483  -0.58764  -0.58220
 Alpha  occ. eigenvalues --   -0.57432  -0.57392  -0.56922  -0.56522  -0.55555
 Alpha  occ. eigenvalues --   -0.54902  -0.54699  -0.53926  -0.53403  -0.53092
 Alpha  occ. eigenvalues --   -0.52727  -0.52322  -0.52055  -0.51828  -0.51593
 Alpha  occ. eigenvalues --   -0.51164  -0.50640  -0.49292  -0.49147  -0.48903
 Alpha  occ. eigenvalues --   -0.48438  -0.48207  -0.48014  -0.47966  -0.47474
 Alpha  occ. eigenvalues --   -0.47443  -0.47297  -0.46905  -0.46678  -0.46512
 Alpha  occ. eigenvalues --   -0.46431  -0.46083  -0.45924  -0.45628  -0.45233
 Alpha  occ. eigenvalues --   -0.45135  -0.44938  -0.44661  -0.44381  -0.44150
 Alpha  occ. eigenvalues --   -0.44025  -0.43814  -0.43678  -0.43377  -0.43241
 Alpha  occ. eigenvalues --   -0.43073  -0.42887  -0.42662  -0.42512  -0.42196
 Alpha  occ. eigenvalues --   -0.41755  -0.41508  -0.41173  -0.41044  -0.40827
 Alpha  occ. eigenvalues --   -0.40614  -0.40298  -0.40116  -0.39872  -0.39618
 Alpha  occ. eigenvalues --   -0.39443  -0.39239  -0.39139  -0.38973  -0.38744
 Alpha  occ. eigenvalues --   -0.38489  -0.38446  -0.38254  -0.37412  -0.36525
 Alpha  occ. eigenvalues --   -0.36360  -0.36053  -0.35769  -0.35566  -0.35300
 Alpha  occ. eigenvalues --   -0.35182  -0.34970  -0.34631  -0.34466  -0.34232
 Alpha  occ. eigenvalues --   -0.33865  -0.33552  -0.33421  -0.33312  -0.32838
 Alpha  occ. eigenvalues --   -0.32580  -0.32250  -0.31394  -0.31319  -0.31098
 Alpha  occ. eigenvalues --   -0.30531  -0.30106  -0.30007  -0.27530  -0.27381
 Alpha  occ. eigenvalues --   -0.27307  -0.27212  -0.27065  -0.26855  -0.26600
 Alpha  occ. eigenvalues --   -0.26077  -0.25101  -0.24467  -0.23485  -0.22975
 Alpha  occ. eigenvalues --   -0.22511  -0.21761  -0.21051  -0.20486
 Alpha virt. eigenvalues --   -0.15138  -0.13353  -0.11935  -0.10220  -0.09766
 Alpha virt. eigenvalues --   -0.08084  -0.07453  -0.06489  -0.06117  -0.05587
 Alpha virt. eigenvalues --   -0.05124  -0.04905  -0.04171  -0.04087  -0.03620

 Mulliken charges:
               1
     1  C   -0.026404
     2  C   -0.021675
     3  C    0.007547
     4  C   -0.031019
     5  C    0.050989
     6  C   -0.024290
     7  C    0.000180
     8  C   -0.034782
     9  C    0.040864
    10  C    0.063677
    11  C    0.063106
    12  C    0.046253
    13  C   -0.028230
    14  C   -0.030582
    15  C   -0.013422
    16  C   -0.028363
    17  C   -0.011329
    18  C    0.043231
    19  C   -0.019512
    20  C    0.044954
    21  C   -0.019726
    22  C   -0.019783
    23  C   -0.004191
    24  C   -0.001745
    25  C   -0.015726
    26  C    0.071659
    27  C   -0.020758
    28  C   -0.354421
    29  C    0.049294
    30  C    0.088928
    31  C   -0.024935
    32  C    0.089110
    33  C   -0.025759
    34  C    0.001846
    35  C    0.043362
    36  C    0.035811
    37  C    0.042334
    38  C    0.046141
    39  C    0.052089
    40  C   -0.026384
    41  C   -0.023366
    42  C    0.062314
    43  C   -0.029650
    44  C    0.066196
    45  C    0.071005
    46  C   -0.034418
    47  C   -0.022705
    48  C   -0.024931
    49  C   -0.024294
    50  C   -0.026481
    51  C    0.052257
    52  C    0.043132
    53  C   -0.019716
    54  C   -0.023003
    55  C   -0.002473
    56  C   -0.017418
    57  C    0.057461
    58  C   -0.013800
    59  C    0.055746
    60  C   -0.015612
    61  C   -0.024110
    62  C   -0.036274
    63  C   -0.029216
    64  C    0.086625
    65  C   -0.032256
    66  C    0.105845
    67  C    0.084552
    68  C    0.102405
    69  C   -0.039226
    70  C   -0.350545
    71  C    0.008951
    72  C    0.077636
    73  C   -0.012537
    74  C    0.023658
    75  C   -0.001234
    76  C   -0.012985
    77  C   -0.026059
    78  C   -0.021483
    79  C   -0.020112
    80  C   -0.024540
    81  C   -0.000034
    82  C   -0.021989
    83  C   -0.020410
    84  C   -0.011614
    85  Cl  -0.014802
    86  Cl  -0.018827
 Sum of Mulliken charges =  -0.00000

 Dipole moment (field-independent basis, Debye):
    X=             -3.2839    Y=              0.5717    Z=              0.5365  Tot=              3.3762
 Quadrupole moment (field-independent basis, Debye-Ang):
   XX=           -501.5231   YY=           -475.5160   ZZ=           -477.7344
   XY=              5.5470   XZ=             -1.5235   YZ=             -0.7930

 Normal termination of Gaussian 16 at Wed Jun 29 20:43:29 2022.
