 Gaussian 16, Revision A.03,
 Gaussian 16:  ES64L-G16RevA.03 25-Dec-2016

 ------------------------------------------------
 #P opt b3lyp/6-31G(d, p) empiricaldispersion=GD3
 ------------------------------------------------

 -----
 force
 -----
 Symbolic Z-matrix:
 Charge =  0 Multiplicity = 1

 SCF Done:  E(RB3LYP) =  -4121.38404637     A.U. after   26 cycles
 SCF Done:  E(RB3LYP) =  -4121.39810042     A.U. after   19 cycles
 SCF Done:  E(RB3LYP) =  -4121.39861644     A.U. after   18 cycles
 SCF Done:  E(RB3LYP) =  -4121.39872884     A.U. after   14 cycles
 SCF Done:  E(RB3LYP) =  -4121.39874384     A.U. after   12 cycles
 SCF Done:  E(RB3LYP) =  -4121.39874697     A.U. after   12 cycles
 Optimization completed.
    -- Stationary point found.

                         Input orientation:
 ---------------------------------------------------------------------
 Center     Atomic      Atomic             Coordinates (Angstroms)
 Number     Number       Type             X           Y           Z
 ---------------------------------------------------------------------
      1          6           0       -0.645243   -1.058109   -3.986850
      2          6           0        1.915639   -3.348532   -1.043024
      3          6           0       -2.574877    1.819780    3.100764
      4          6           0        0.470544   -1.517394    3.731701
      5          6           0        0.375623   -0.086477   -3.836508
      6          6           0        0.733231   -3.662348   -1.774619
      7          6           0       -1.380922    2.612637    3.168115
      8          6           0       -0.961273   -1.457814    3.740102
      9          6           0        1.634827   -0.491579   -3.213149
     10          6           0       -0.472618   -4.061354   -1.133156
     11          6           0       -1.750284   -2.367345    2.999052
     12          6           0       -0.126863    2.048731    3.513187
     13          6           0        1.770748   -1.835748   -2.817968
     14          6           0       -0.171595    0.711276    3.976512
     15          6           0        0.692749   -2.778890   -2.923382
     16          6           0       -1.355267   -0.075172    3.920192
     17          6           0       -0.499793   -2.387162   -3.476019
     18          6           0       -2.563304    0.428931    3.380494
     19          6           0       -1.755750   -2.817758   -2.873419
     20          6           0       -3.422252   -0.483645    2.618182
     21          6           0       -2.707442   -1.772172   -3.086735
     22          6           0       -4.272679    0.098705    1.650719
     23          6           0       -2.040925   -0.711222   -3.823293
     24          6           0       -4.180912    1.503599    1.301969
     25          6           0       -2.417821    0.598539   -3.646902
     26          6           0       -3.362375    2.342167    2.006307
     27          6           0       -1.417409    1.629477   -3.635841
     28          6           0       -2.621412    3.391357    1.333280
     29          6           0       -0.042587    1.304364   -3.735153
     30          6           0       -1.462298    3.620702    2.131707
     31          6           0        0.860550    2.240841   -3.175330
     32          6           0       -0.310074    4.116343    1.562456
     33          6           0        2.140946    1.849982   -2.679216
     34          6           0        0.985637    3.646888    1.999083
     35          6           0        2.488943    0.483650   -2.544376
     36          6           0        1.102916    2.545572    2.879194
     37          6           0        3.317386    0.075877   -1.422434
     38          6           0        2.227716    1.625626    2.694965
     39          6           0        3.294876   -1.256607   -0.970932
     40          6           0        2.797165   -2.630595    1.100744
     41          6           0        2.381463   -2.107359    2.346729
     42          6           0        2.127302    0.249639    3.166056
     43          6           0        2.553603   -2.214033   -1.679171
     44          6           0        1.968373   -3.503036    0.379187
     45          6           0        1.152158   -2.499956    2.962093
     46          6           0        0.964185   -0.176405    3.836622
     47          6           0        0.777195   -3.986550    1.013914
     48          6           0        0.375894   -3.479958    2.312469
     49          6           0       -0.393448   -4.291524    0.271906
     50          6           0       -1.057569   -3.450114    2.373499
     51          6           0       -1.758620   -3.615048   -1.702683
     52          6           0       -3.014394   -1.881618    2.423252
     53          6           0       -2.867188   -3.411112   -0.827692
     54          6           0       -3.506588   -2.565309    1.286652
     55          6           0       -2.714777   -3.572678    0.604184
     56          6           0       -1.526913   -4.005546    1.136368
     57          6           0       -3.716812   -1.466480   -2.134758
     58          6           0       -4.626425   -0.584411    0.440073
     59          6           0       -4.108837   -0.059950   -1.938922
     60          6           0       -4.580800    0.354001   -0.668508
     61          6           0       -3.456564    0.944143   -2.702189
     62          6           0       -4.285098    1.647597   -0.132924
     63          6           0       -3.122222    2.222988   -2.155007
     64          6           0       -3.469061    2.587303   -0.828546
     65          6           0       -1.878071    2.658203   -2.743407
     66          6           0       -2.576399    3.474562   -0.082571
     67          6           0       -0.982092    3.499651   -2.047384
     68          6           0       -1.340082    3.962298   -0.700702
     69          6           0        0.389345    3.376128   -2.413988
     70          6           0       -0.274985    4.368062    0.144118
     71          6           0        1.433317    3.758480   -1.513996
     72          6           0        1.110945    4.256110   -0.259513
     73          6           0        2.537692    2.841404   -1.681849
     74          6           0        1.878737    3.822586    0.881878
     75          6           0        3.308834    2.482262   -0.612596
     76          6           0        2.936333    2.940040    0.702528
     77          6           0        3.984062    1.136706   -0.540105
     78          6           0        3.127152    1.866196    1.625343
     79          6           0        3.759314   -1.656208    0.428998
     80          6           0        2.879399   -0.766518    2.488039
     81          6           0        3.804034    0.801268    0.924400
     82          6           0        3.699148   -0.475511    1.367828
     83          6           0       -3.814455   -2.366912   -1.039092
     84          6           0       -4.257361   -1.897062    0.264780
     85         17           0        5.463950   -2.385184    0.327686
     86         17           0        5.790199    1.287026   -1.028532
 ---------------------------------------------------------------------

 The electronic state is 1-A.
 Alpha  occ. eigenvalues -- -101.54619-101.54031 -10.29748 -10.29586 -10.25590
 Alpha  occ. eigenvalues --  -10.25197 -10.25110 -10.24982 -10.24895 -10.24874
 Alpha  occ. eigenvalues --  -10.24861 -10.24824 -10.24788 -10.24781 -10.24723
 Alpha  occ. eigenvalues --  -10.24670 -10.24630 -10.24605 -10.24598 -10.24579
 Alpha  occ. eigenvalues --  -10.24477 -10.24423 -10.24415 -10.24386 -10.24307
 Alpha  occ. eigenvalues --  -10.24281 -10.24226 -10.24197 -10.24192 -10.24121
 Alpha  occ. eigenvalues --  -10.24109 -10.23991 -10.23966 -10.23905 -10.23902
 Alpha  occ. eigenvalues --  -10.23900 -10.23876 -10.23794 -10.23774 -10.23654
 Alpha  occ. eigenvalues --  -10.23609 -10.23592 -10.23558 -10.23533 -10.23533
 Alpha  occ. eigenvalues --  -10.23532 -10.23526 -10.23460 -10.23405 -10.23405
 Alpha  occ. eigenvalues --  -10.23384 -10.23374 -10.23357 -10.23347 -10.23330
 Alpha  occ. eigenvalues --  -10.23305 -10.23240 -10.23224 -10.23158 -10.23141
 Alpha  occ. eigenvalues --  -10.23133 -10.23130 -10.23102 -10.23097 -10.23012
 Alpha  occ. eigenvalues --  -10.22995 -10.22939 -10.22901 -10.22893 -10.22883
 Alpha  occ. eigenvalues --  -10.22880 -10.22875 -10.22857 -10.22857 -10.22843
 Alpha  occ. eigenvalues --  -10.22805 -10.22804 -10.22747 -10.22685 -10.22598
 Alpha  occ. eigenvalues --  -10.22556 -10.22378 -10.22342 -10.22337 -10.22337
 Alpha  occ. eigenvalues --  -10.22263  -9.46146  -9.45579  -7.22586  -7.21987
 Alpha  occ. eigenvalues --   -7.21548  -7.21542  -7.20999  -7.20986  -0.97261
 Alpha  occ. eigenvalues --   -0.96273  -0.95817  -0.95566  -0.93840  -0.93712
 Alpha  occ. eigenvalues --   -0.93298  -0.93002  -0.92417  -0.90738  -0.90239
 Alpha  occ. eigenvalues --   -0.89731  -0.88958  -0.88628  -0.88299  -0.88020
 Alpha  occ. eigenvalues --   -0.86113  -0.85259  -0.84697  -0.84304  -0.83916
 Alpha  occ. eigenvalues --   -0.83793  -0.83341  -0.83140  -0.83033  -0.81764
 Alpha  occ. eigenvalues --   -0.81334  -0.79281  -0.78886  -0.78550  -0.78286
 Alpha  occ. eigenvalues --   -0.78071  -0.77938  -0.77394  -0.77179  -0.76809
 Alpha  occ. eigenvalues --   -0.76703  -0.75129  -0.73133  -0.72958  -0.72821
 Alpha  occ. eigenvalues --   -0.72187  -0.71473  -0.71407  -0.70999  -0.70053
 Alpha  occ. eigenvalues --   -0.69684  -0.69193  -0.68670  -0.67428  -0.66356
 Alpha  occ. eigenvalues --   -0.65510  -0.65140  -0.64631  -0.64459  -0.63905
 Alpha  occ. eigenvalues --   -0.63540  -0.63250  -0.62834  -0.62297  -0.61722
 Alpha  occ. eigenvalues --   -0.61455  -0.60503  -0.59298  -0.58905  -0.58162
 Alpha  occ. eigenvalues --   -0.57667  -0.57332  -0.56971  -0.56497  -0.55719
 Alpha  occ. eigenvalues --   -0.55003  -0.54740  -0.53984  -0.53415  -0.53056
 Alpha  occ. eigenvalues --   -0.52683  -0.52474  -0.52372  -0.51933  -0.51540
 Alpha  occ. eigenvalues --   -0.51018  -0.50664  -0.49332  -0.49147  -0.48738
 Alpha  occ. eigenvalues --   -0.48627  -0.48389  -0.48189  -0.47807  -0.47637
 Alpha  occ. eigenvalues --   -0.47326  -0.47284  -0.46865  -0.46793  -0.46539
 Alpha  occ. eigenvalues --   -0.46402  -0.46189  -0.46043  -0.45829  -0.45455
 Alpha  occ. eigenvalues --   -0.45089  -0.45046  -0.44721  -0.44389  -0.44140
 Alpha  occ. eigenvalues --   -0.43921  -0.43816  -0.43636  -0.43401  -0.43243
 Alpha  occ. eigenvalues --   -0.43179  -0.42892  -0.42540  -0.42486  -0.42163
 Alpha  occ. eigenvalues --   -0.41622  -0.41618  -0.41286  -0.41260  -0.40986
 Alpha  occ. eigenvalues --   -0.40635  -0.40455  -0.40370  -0.40022  -0.39523
 Alpha  occ. eigenvalues --   -0.39412  -0.39261  -0.39083  -0.38995  -0.38746
 Alpha  occ. eigenvalues --   -0.38543  -0.38407  -0.38316  -0.37384  -0.36513
 Alpha  occ. eigenvalues --   -0.36439  -0.36089  -0.35723  -0.35676  -0.35433
 Alpha  occ. eigenvalues --   -0.35326  -0.34949  -0.34554  -0.34516  -0.34412
 Alpha  occ. eigenvalues --   -0.33920  -0.33653  -0.33466  -0.33279  -0.32712
 Alpha  occ. eigenvalues --   -0.32463  -0.32396  -0.31437  -0.31295  -0.30802
 Alpha  occ. eigenvalues --   -0.30449  -0.30239  -0.29904  -0.27583  -0.27441
 Alpha  occ. eigenvalues --   -0.27349  -0.27321  -0.27130  -0.26898  -0.26118
 Alpha  occ. eigenvalues --   -0.25798  -0.25276  -0.24866  -0.23600  -0.23084
 Alpha  occ. eigenvalues --   -0.22584  -0.21786  -0.21296  -0.18822
 Alpha virt. eigenvalues --   -0.16278  -0.13481  -0.12150  -0.10678  -0.09135
 Alpha virt. eigenvalues --   -0.08844  -0.07090  -0.06671  -0.06037  -0.05653
 Alpha virt. eigenvalues --   -0.05249  -0.04814  -0.04310  -0.03885  -0.03553

 Mulliken charges:
               1
     1  C   -0.023807
     2  C   -0.038131
     3  C   -0.024064
     4  C   -0.029856
     5  C    0.048154
     6  C   -0.018670
     7  C   -0.025744
     8  C   -0.029763
     9  C    0.039909
    10  C    0.063741
    11  C    0.062370
    12  C    0.058878
    13  C   -0.026705
    14  C   -0.032599
    15  C   -0.013511
    16  C   -0.031404
    17  C   -0.009200
    18  C    0.052298
    19  C   -0.018310
    20  C    0.047806
    21  C   -0.018044
    22  C   -0.021557
    23  C    0.000666
    24  C   -0.013205
    25  C   -0.019629
    26  C   -0.012942
    27  C   -0.022876
    28  C   -0.022348
    29  C    0.054659
    30  C   -0.013891
    31  C   -0.026929
    32  C   -0.014064
    33  C   -0.041963
    34  C   -0.026244
    35  C    0.063807
    36  C    0.046234
    37  C    0.100812
    38  C    0.034414
    39  C    0.133103
    40  C    0.045588
    41  C    0.012633
    42  C    0.053815
    43  C    0.005538
    44  C    0.081712
    45  C    0.063600
    46  C   -0.036607
    47  C   -0.020748
    48  C   -0.028287
    49  C   -0.027257
    50  C   -0.030881
    51  C    0.055072
    52  C    0.045501
    53  C   -0.021153
    54  C   -0.023858
    55  C   -0.001598
    56  C   -0.016516
    57  C    0.055937
    58  C   -0.009845
    59  C    0.055946
    60  C   -0.020109
    61  C   -0.019887
    62  C   -0.019775
    63  C   -0.028296
    64  C    0.050996
    65  C   -0.029540
    66  C    0.041019
    67  C    0.050756
    68  C    0.047602
    69  C   -0.021263
    70  C   -0.028521
    71  C   -0.007120
    72  C   -0.000029
    73  C    0.008809
    74  C   -0.021360
    75  C    0.078515
    76  C    0.027983
    77  C   -0.348191
    78  C    0.000958
    79  C   -0.358372
    80  C    0.006758
    81  C    0.095028
    82  C    0.087894
    83  C   -0.018563
    84  C   -0.014937
    85  Cl  -0.013109
    86  Cl  -0.037233
 Sum of Mulliken charges =  -0.00000

 Dipole moment (field-independent basis, Debye):
    X=             -3.8924    Y=              0.0856    Z=             -0.4123  Tot=              3.9151
 Quadrupole moment (field-independent basis, Debye-Ang):
   XX=           -500.1798   YY=           -479.9046   ZZ=           -475.9034
   XY=              4.1619   XZ=              4.5352   YZ=              1.6048

 Normal termination of Gaussian 16 at Wed Jun 29 18:28:40 2022.
