 Gaussian 16, Revision A.03,
 Gaussian 16:  ES64L-G16RevA.03 25-Dec-2016

 ------------------------------------------------
 #P opt b3lyp/6-31G(d, p) empiricaldispersion=GD3
 ------------------------------------------------

 -----
 force
 -----
 Symbolic Z-matrix:
 Charge =  0 Multiplicity = 1

 SCF Done:  E(RB3LYP) =  -4121.39222342     A.U. after   22 cycles
 SCF Done:  E(RB3LYP) =  -4121.40553656     A.U. after   17 cycles
 SCF Done:  E(RB3LYP) =  -4121.40597981     A.U. after   15 cycles
 SCF Done:  E(RB3LYP) =  -4121.40608148     A.U. after   12 cycles
 SCF Done:  E(RB3LYP) =  -4121.40609197     A.U. after   11 cycles
 Optimization completed.
    -- Stationary point found.

                         Input orientation:
 ---------------------------------------------------------------------
 Center     Atomic      Atomic             Coordinates (Angstroms)
 Number     Number       Type             X           Y           Z
 ---------------------------------------------------------------------
      1          6           0        0.333550   -1.957829   -3.574766
      2          6           0        3.856510   -1.346661   -0.557367
      3          6           0       -3.368895    0.673749    2.843779
      4          6           0        1.053049    0.314414    3.873682
      5          6           0        0.478753   -0.566319   -3.765034
      6          6           0        2.941833   -2.469914   -1.029908
      7          6           0       -2.973356    2.027946    2.595534
      8          6           0       -0.074880   -0.547486    4.038953
      9          6           0        1.666203    0.094501   -3.213189
     10          6           0        2.253270   -3.340133   -0.184734
     11          6           0       -0.048942   -1.892356    3.610767
     12          6           0       -1.675271    2.499132    2.916065
     13          6           0        2.606748   -0.699991   -2.527599
     14          6           0       -0.879494    1.608956    3.680325
     15          6           0        2.397433   -2.100242   -2.295064
     16          6           0       -1.274241    0.262498    3.934081
     17          6           0        1.268882   -2.716883   -2.802874
     18          6           0       -2.483786   -0.269353    3.435478
     19          6           0        0.563714   -3.678721   -1.989364
     20          6           0       -2.513088   -1.674008    3.009451
     21          6           0       -0.831161   -3.575551   -2.314521
     22          6           0       -3.482546   -2.028981    2.042088
     23          6           0       -0.965945   -2.559562   -3.338018
     24          6           0       -4.296292   -1.031713    1.375071
     25          6           0       -2.108813   -1.798326   -3.407143
     26          6           0       -4.246178    0.278855    1.765317
     27          6           0       -2.014687   -0.402503   -3.756525
     28          6           0       -4.314306    1.344903    0.787072
     29          6           0       -0.745858    0.213155   -3.945809
     30          6           0       -3.621100    2.450897    1.370947
     31          6           0       -0.698866    1.599339   -3.728043
     32          6           0       -3.022344    3.391343    0.568641
     33          6           0        0.524519    2.266892   -3.296724
     34          6           0       -1.751654    3.985582    0.949711
     35          6           0        1.662250    1.517609   -2.907221
     36          6           0       -1.013105    3.484048    2.052575
     37          6           0        2.499261    2.033741   -1.827942
     38          6           0        0.447868    3.489223    1.961153
     39          6           0        3.343524    1.119156   -1.073730
     40          6           0        3.690234    0.308997    1.286029
     41          6           0        2.972631    0.758681    2.452977
     42          6           0        1.226489    2.525121    2.742812
     43          6           0        3.417294   -0.188919   -1.460574
     44          6           0        3.672963   -1.008845    0.898656
     45          6           0        2.246399   -0.155810    3.266619
     46          6           0        0.560235    1.642230    3.608303
     47          6           0        3.031359   -1.966071    1.743333
     48          6           0        2.315871   -1.526659    2.936281
     49          6           0        2.393263   -3.114971    1.240811
     50          6           0        1.211232   -2.395078    3.160213
     51          6           0        1.011447   -3.963830   -0.676107
     52          6           0       -1.293990   -2.483544    3.088673
     53          6           0       -0.012626   -4.303024    0.254917
     54          6           0       -1.161365   -3.571313    2.195853
     55          6           0        0.133360   -3.965141    1.660840
     56          6           0        1.289643   -3.408237    2.134381
     57          6           0       -1.847096   -3.759586   -1.340064
     58          6           0       -3.246939   -3.056141    1.069153
     59          6           0       -3.064919   -2.937663   -1.415129
     60          6           0       -3.759524   -2.622486   -0.222126
     61          6           0       -3.181455   -1.981517   -2.463391
     62          6           0       -4.389078   -1.354464   -0.029324
     63          6           0       -3.776457   -0.697641   -2.258239
     64          6           0       -4.335248   -0.320548   -1.018452
     65          6           0       -3.075558    0.274237   -3.084732
     66          6           0       -4.264126    1.084243   -0.604096
     67          6           0       -2.969775    1.628439   -2.709271
     68          6           0       -3.602506    2.071549   -1.462073
     69          6           0       -1.818956    2.316633   -3.201600
     70          6           0       -3.081683    3.244960   -0.860400
     71          6           0       -1.300562    3.482219   -2.533677
     72          6           0       -1.919940    3.932545   -1.387455
     73          6           0        0.149149    3.460449   -2.626330
     74          6           0       -1.115662    4.398515   -0.262181
     75          6           0        0.926652    3.928778   -1.564751
     76          6           0        0.267984    4.398886   -0.350096
     77          6           0        2.118646    3.254238   -1.205595
     78          6           0        1.045208    3.982964    0.775194
     79          6           0        3.854232    1.474655    0.318215
     80          6           0        2.499284    2.078535    2.234889
     81          6           0        2.273343    3.410288    0.244374
     82          6           0        2.995171    2.527838    0.974895
     83          6           0       -1.393225   -4.202922   -0.064602
     84          6           0       -2.105427   -3.816806    1.149608
     85         17           0        5.627691    2.027319    0.227037
     86         17           0        5.638710   -1.809621   -0.901817
 ---------------------------------------------------------------------

 The electronic state is 1-A.
 Alpha  occ. eigenvalues -- -101.54407-101.54168 -10.29599 -10.29478 -10.25278
 Alpha  occ. eigenvalues --  -10.25011 -10.24965 -10.24844 -10.24832 -10.24818
 Alpha  occ. eigenvalues --  -10.24806 -10.24782 -10.24781 -10.24729 -10.24718
 Alpha  occ. eigenvalues --  -10.24686 -10.24684 -10.24647 -10.24540 -10.24528
 Alpha  occ. eigenvalues --  -10.24507 -10.24323 -10.24271 -10.24270 -10.24263
 Alpha  occ. eigenvalues --  -10.24237 -10.24197 -10.24168 -10.24087 -10.24079
 Alpha  occ. eigenvalues --  -10.24065 -10.24051 -10.24017 -10.24002 -10.23920
 Alpha  occ. eigenvalues --  -10.23804 -10.23760 -10.23730 -10.23652 -10.23592
 Alpha  occ. eigenvalues --  -10.23571 -10.23560 -10.23527 -10.23500 -10.23483
 Alpha  occ. eigenvalues --  -10.23454 -10.23444 -10.23426 -10.23372 -10.23361
 Alpha  occ. eigenvalues --  -10.23337 -10.23311 -10.23289 -10.23287 -10.23227
 Alpha  occ. eigenvalues --  -10.23219 -10.23213 -10.23200 -10.23192 -10.23191
 Alpha  occ. eigenvalues --  -10.23155 -10.23153 -10.23116 -10.23106 -10.23103
 Alpha  occ. eigenvalues --  -10.23074 -10.23027 -10.23013 -10.22981 -10.22945
 Alpha  occ. eigenvalues --  -10.22940 -10.22931 -10.22928 -10.22915 -10.22896
 Alpha  occ. eigenvalues --  -10.22886 -10.22865 -10.22850 -10.22796 -10.22781
 Alpha  occ. eigenvalues --  -10.22775 -10.22638 -10.22584 -10.22543 -10.22530
 Alpha  occ. eigenvalues --  -10.22528  -9.45941  -9.45697  -7.22372  -7.22118
 Alpha  occ. eigenvalues --   -7.21350  -7.21338  -7.21109  -7.21105  -0.97202
 Alpha  occ. eigenvalues --   -0.96065  -0.95953  -0.95584  -0.93870  -0.93685
 Alpha  occ. eigenvalues --   -0.93374  -0.92944  -0.92419  -0.90570  -0.90284
 Alpha  occ. eigenvalues --   -0.89720  -0.89028  -0.88404  -0.88311  -0.88205
 Alpha  occ. eigenvalues --   -0.86353  -0.84859  -0.84583  -0.84336  -0.83791
 Alpha  occ. eigenvalues --   -0.83762  -0.83536  -0.83304  -0.83126  -0.81799
 Alpha  occ. eigenvalues --   -0.80945  -0.79125  -0.78845  -0.78472  -0.78375
 Alpha  occ. eigenvalues --   -0.78178  -0.78099  -0.77834  -0.77206  -0.76727
 Alpha  occ. eigenvalues --   -0.76444  -0.75014  -0.73127  -0.72971  -0.72750
 Alpha  occ. eigenvalues --   -0.72440  -0.71648  -0.71405  -0.70888  -0.70059
 Alpha  occ. eigenvalues --   -0.69619  -0.69175  -0.68577  -0.67380  -0.66496
 Alpha  occ. eigenvalues --   -0.65420  -0.65133  -0.64822  -0.64341  -0.63969
 Alpha  occ. eigenvalues --   -0.63530  -0.63141  -0.62892  -0.62410  -0.61644
 Alpha  occ. eigenvalues --   -0.61459  -0.60570  -0.59237  -0.58836  -0.58143
 Alpha  occ. eigenvalues --   -0.57628  -0.57306  -0.56946  -0.56500  -0.55662
 Alpha  occ. eigenvalues --   -0.55073  -0.54721  -0.54003  -0.53357  -0.52981
 Alpha  occ. eigenvalues --   -0.52778  -0.52407  -0.52263  -0.51918  -0.51562
 Alpha  occ. eigenvalues --   -0.51088  -0.50653  -0.49332  -0.49112  -0.48818
 Alpha  occ. eigenvalues --   -0.48642  -0.48320  -0.48071  -0.47708  -0.47706
 Alpha  occ. eigenvalues --   -0.47407  -0.47196  -0.47114  -0.46693  -0.46539
 Alpha  occ. eigenvalues --   -0.46471  -0.46140  -0.45969  -0.45815  -0.45520
 Alpha  occ. eigenvalues --   -0.45073  -0.44777  -0.44651  -0.44387  -0.44072
 Alpha  occ. eigenvalues --   -0.44029  -0.43815  -0.43743  -0.43514  -0.43267
 Alpha  occ. eigenvalues --   -0.43181  -0.42872  -0.42698  -0.42488  -0.42129
 Alpha  occ. eigenvalues --   -0.41722  -0.41643  -0.41356  -0.41199  -0.40769
 Alpha  occ. eigenvalues --   -0.40667  -0.40375  -0.40291  -0.39998  -0.39528
 Alpha  occ. eigenvalues --   -0.39360  -0.39116  -0.39012  -0.39003  -0.38866
 Alpha  occ. eigenvalues --   -0.38562  -0.38537  -0.38352  -0.37655  -0.36715
 Alpha  occ. eigenvalues --   -0.36192  -0.35771  -0.35716  -0.35484  -0.35378
 Alpha  occ. eigenvalues --   -0.35319  -0.34937  -0.34645  -0.34587  -0.34381
 Alpha  occ. eigenvalues --   -0.33892  -0.33604  -0.33299  -0.33191  -0.33053
 Alpha  occ. eigenvalues --   -0.32835  -0.32531  -0.31446  -0.31146  -0.30723
 Alpha  occ. eigenvalues --   -0.30290  -0.29946  -0.29788  -0.27611  -0.27382
 Alpha  occ. eigenvalues --   -0.27296  -0.27232  -0.27212  -0.26973  -0.26515
 Alpha  occ. eigenvalues --   -0.26181  -0.25651  -0.24649  -0.23150  -0.22851
 Alpha  occ. eigenvalues --   -0.22622  -0.21523  -0.21436  -0.19881
 Alpha virt. eigenvalues --   -0.15452  -0.14065  -0.10856  -0.10619  -0.09706
 Alpha virt. eigenvalues --   -0.09091  -0.07247  -0.06466  -0.05793  -0.05615
 Alpha virt. eigenvalues --   -0.05362  -0.04880  -0.04356  -0.03936  -0.03347

 Mulliken charges:
               1
     1  C   -0.027290
     2  C   -0.361218
     3  C   -0.022980
     4  C   -0.029164
     5  C    0.054864
     6  C    0.047733
     7  C   -0.024249
     8  C   -0.031384
     9  C    0.034824
    10  C    0.074036
    11  C    0.064205
    12  C    0.057149
    13  C    0.007097
    14  C   -0.033323
    15  C    0.029924
    16  C   -0.030888
    17  C   -0.025377
    18  C    0.053463
    19  C   -0.020768
    20  C    0.046708
    21  C   -0.021748
    22  C   -0.020658
    23  C   -0.003967
    24  C   -0.014474
    25  C   -0.012545
    26  C   -0.011831
    27  C   -0.022640
    28  C   -0.020463
    29  C    0.050588
    30  C   -0.017270
    31  C   -0.031685
    32  C   -0.010190
    33  C   -0.027900
    34  C   -0.024073
    35  C    0.035982
    36  C    0.043571
    37  C    0.069078
    38  C    0.041175
    39  C    0.119280
    40  C    0.074933
    41  C    0.003797
    42  C    0.052215
    43  C    0.079517
    44  C    0.149422
    45  C    0.064451
    46  C   -0.030097
    47  C    0.007396
    48  C   -0.028698
    49  C   -0.046367
    50  C   -0.028021
    51  C    0.050830
    52  C    0.043473
    53  C   -0.017264
    54  C   -0.020326
    55  C    0.002138
    56  C   -0.014875
    57  C    0.058322
    58  C   -0.012423
    59  C    0.054979
    60  C   -0.022245
    61  C   -0.023987
    62  C   -0.018541
    63  C   -0.029538
    64  C    0.052841
    65  C   -0.031119
    66  C    0.043577
    67  C    0.052086
    68  C    0.044579
    69  C   -0.021413
    70  C   -0.024285
    71  C   -0.010559
    72  C    0.005460
    73  C   -0.012811
    74  C   -0.007742
    75  C    0.002215
    76  C   -0.005020
    77  C   -0.043653
    78  C   -0.019042
    79  C   -0.360161
    80  C    0.008868
    81  C    0.002978
    82  C    0.072174
    83  C   -0.019201
    84  C   -0.012296
    85  Cl  -0.019458
    86  Cl  -0.030698
 Sum of Mulliken charges =  -0.00000

 Dipole moment (field-independent basis, Debye):
    X=             -3.9372    Y=             -0.3642    Z=              0.0916  Tot=              3.9551
 Quadrupole moment (field-independent basis, Debye-Ang):
   XX=           -503.8192   YY=           -475.3512   ZZ=           -476.7675
   XY=              0.7917   XZ=              1.2535   YZ=             -0.4795

 Normal termination of Gaussian 16 at Tue Jun 28 17:24:14 2022.
