 Gaussian 16, Revision A.03,
 Gaussian 16:  ES64L-G16RevA.03 25-Dec-2016

 ------------------------------------------------
 #P opt b3lyp/6-31G(d, p) empiricaldispersion=GD3
 ------------------------------------------------

 -----
 force
 -----
 Symbolic Z-matrix:
 Charge =  0 Multiplicity = 1

 SCF Done:  E(RB3LYP) =  -4121.40342539     A.U. after   20 cycles
 SCF Done:  E(RB3LYP) =  -4121.41664245     A.U. after   16 cycles
 SCF Done:  E(RB3LYP) =  -4121.41698853     A.U. after   11 cycles
 SCF Done:  E(RB3LYP) =  -4121.41705454     A.U. after   10 cycles
 SCF Done:  E(RB3LYP) =  -4121.41706141     A.U. after    8 cycles
 Optimization completed.
    -- Stationary point found.

                         Input orientation:
 ---------------------------------------------------------------------
 Center     Atomic      Atomic             Coordinates (Angstroms)
 Number     Number       Type             X           Y           Z
 ---------------------------------------------------------------------
      1          6           0        2.145517   -1.261288   -2.959497
      2          6           0        0.968394    3.081988   -2.573826
      3          6           0       -1.550781   -0.843173    3.936236
      4          6           0       -1.370555    3.383613    2.223095
      5          6           0        0.810824   -1.388783   -3.427975
      6          6           0        2.205663    2.357596   -2.422310
      7          6           0       -2.836284   -0.795553    3.315912
      8          6           0       -0.548921    2.635639    3.131035
      9          6           0        0.081195   -0.175615   -3.804647
     10          6           0        2.933871    2.359199   -1.211668
     11          6           0        0.844665    2.532145    2.955742
     12          6           0       -3.354572    0.398982    2.748661
     13          6           0        0.758672    1.056165   -3.721524
     14          6           0       -2.607821    1.569595    3.017068
     15          6           0        2.087749    1.154998   -3.192817
     16          6           0       -1.327873    1.526017    3.638475
     17          6           0        2.759044    0.016449   -2.792561
     18          6           0       -0.719640    0.306876    4.021391
     19          6           0        3.579535    0.027174   -1.616094
     20          6           0        0.732430    0.172139    3.884352
     21          6           0        3.767623   -1.415865   -1.148465
     22          6           0        1.247005   -1.140695    3.736386
     23          6           0        2.707617   -2.135538   -1.971101
     24          6           0        0.376254   -2.283975    3.546330
     25          6           0        1.969765   -3.162536   -1.467078
     26          6           0       -0.981220   -2.145171    3.645072
     27          6           0        0.653890   -3.411140   -1.987648
     28          6           0       -1.860588   -2.866081    2.753813
     29          6           0        0.078233   -2.557880   -2.971357
     30          6           0       -3.046735   -2.071771    2.656665
     31          6           0       -1.324860   -2.535505   -3.020431
     32          6           0       -3.831739   -2.137467    1.535454
     33          6           0       -2.047696   -1.358608   -3.478713
     34          6           0       -4.476867   -0.943183    1.013756
     35          6           0       -1.383407   -0.142786   -3.752869
     36          6           0       -4.174355    0.342621    1.531784
     37          6           0       -2.084736    1.111500   -3.452396
     38          6           0       -4.167526    1.478413    0.607105
     39          6           0       -1.315649    2.332067   -3.203211
     40          6           0       -0.934633    4.011696   -1.404911
     41          6           0       -1.578687    4.102490   -0.086299
     42          6           0       -3.359450    2.670041    0.917873
     43          6           0        0.078875    2.288661   -3.378668
     44          6           0        0.470188    3.891862   -1.521873
     45          6           0       -0.799603    4.051460    1.104725
     46          6           0       -2.633282    2.708128    2.119565
     47          6           0        1.265408    3.975041   -0.329158
     48          6           0        0.613461    4.040230    0.987062
     49          6           0        2.471674    3.268864   -0.198146
     50          6           0        1.417092    3.337058    1.916830
     51          6           0        3.640465    1.143165   -0.813228
     52          6           0        1.509659    1.282482    3.336816
     53          6           0        4.064230    0.936507    0.630527
     54          6           0        2.729660    0.982571    2.675335
     55          6           0        3.245136    1.780740    1.597622
     56          6           0        2.602946    2.911160    1.210712
     57          6           0        3.538324   -1.573451    0.344389
     58          6           0        2.414735   -1.409970    2.957727
     59          6           0        2.731299   -2.681400    0.859565
     60          6           0        2.214924   -2.604518    2.173034
     61          6           0        1.978020   -3.482813   -0.044302
     62          6           0        0.931471   -3.142916    2.524466
     63          6           0        0.688310   -3.966055    0.280415
     64          6           0        0.091757   -3.754994    1.557171
     65          6           0       -0.128521   -3.953565   -0.925981
     66          6           0       -1.359701   -3.594586    1.644819
     67          6           0       -1.527004   -3.792198   -0.877511
     68          6           0       -2.181712   -3.640088    0.429425
     69          6           0       -2.120895   -3.210664   -2.039409
     70          6           0       -3.440434   -2.992677    0.443979
     71          6           0       -3.384081   -2.528479   -1.967114
     72          6           0       -4.028282   -2.421101   -0.750919
     73          6           0       -3.347494   -1.401052   -2.880330
     74          6           0       -4.675996   -1.170503   -0.383956
     75          6           0       -3.986080   -0.215873   -2.549077
     76          6           0       -4.661248   -0.094826   -1.260781
     77          6           0       -3.374535    1.031053   -2.865888
     78          6           0       -4.453289    1.224665   -0.758637
     79          6           0       -1.806612    3.305966   -2.274165
     80          6           0       -2.840776    3.473411   -0.158991
     81          6           0       -3.775987    1.962196   -1.820533
     82          6           0       -3.016973    3.054126   -1.532714
     83          6           0        3.755956   -0.472024    1.135537
     84          6           0        3.144826   -0.363197    2.431711
     85         17           0        5.462987   -2.040218   -1.600082
     86         17           0        5.873747    1.321211    0.831070
 ---------------------------------------------------------------------

 The electronic state is 1-A.
 Alpha  occ. eigenvalues -- -101.54785-101.54639 -10.29989 -10.29931 -10.25058
 Alpha  occ. eigenvalues --  -10.25026 -10.25003 -10.24963 -10.24943 -10.24912
 Alpha  occ. eigenvalues --  -10.24901 -10.24844 -10.24842 -10.24838 -10.24812
 Alpha  occ. eigenvalues --  -10.24759 -10.24682 -10.24586 -10.24531 -10.24508
 Alpha  occ. eigenvalues --  -10.24491 -10.24481 -10.24441 -10.24334 -10.24314
 Alpha  occ. eigenvalues --  -10.24196 -10.24154 -10.24117 -10.24112 -10.24043
 Alpha  occ. eigenvalues --  -10.24023 -10.23969 -10.23805 -10.23747 -10.23696
 Alpha  occ. eigenvalues --  -10.23656 -10.23638 -10.23623 -10.23612 -10.23601
 Alpha  occ. eigenvalues --  -10.23545 -10.23543 -10.23530 -10.23492 -10.23475
 Alpha  occ. eigenvalues --  -10.23437 -10.23399 -10.23284 -10.23279 -10.23246
 Alpha  occ. eigenvalues --  -10.23234 -10.23221 -10.23197 -10.23187 -10.23172
 Alpha  occ. eigenvalues --  -10.23163 -10.23146 -10.23139 -10.23119 -10.23090
 Alpha  occ. eigenvalues --  -10.23072 -10.23061 -10.23027 -10.23010 -10.23010
 Alpha  occ. eigenvalues --  -10.23005 -10.23003 -10.22947 -10.22936 -10.22896
 Alpha  occ. eigenvalues --  -10.22880 -10.22849 -10.22846 -10.22841 -10.22838
 Alpha  occ. eigenvalues --  -10.22782 -10.22740 -10.22719 -10.22718 -10.22697
 Alpha  occ. eigenvalues --  -10.22596 -10.22583 -10.22563 -10.22415 -10.22397
 Alpha  occ. eigenvalues --  -10.22223  -9.46318  -9.46176  -7.22751  -7.22604
 Alpha  occ. eigenvalues --   -7.21725  -7.21717  -7.21584  -7.21577  -0.97212
 Alpha  occ. eigenvalues --   -0.96274  -0.95681  -0.95568  -0.94005  -0.93513
 Alpha  occ. eigenvalues --   -0.93202  -0.93093  -0.92310  -0.90467  -0.90225
 Alpha  occ. eigenvalues --   -0.89937  -0.89139  -0.88425  -0.88340  -0.87886
 Alpha  occ. eigenvalues --   -0.85960  -0.85444  -0.84752  -0.84510  -0.83794
 Alpha  occ. eigenvalues --   -0.83543  -0.83330  -0.82995  -0.82927  -0.82066
 Alpha  occ. eigenvalues --   -0.81596  -0.79066  -0.78740  -0.78578  -0.78291
 Alpha  occ. eigenvalues --   -0.77981  -0.77953  -0.77668  -0.77055  -0.76754
 Alpha  occ. eigenvalues --   -0.76443  -0.75247  -0.73163  -0.73057  -0.72385
 Alpha  occ. eigenvalues --   -0.72273  -0.71639  -0.71528  -0.70922  -0.70044
 Alpha  occ. eigenvalues --   -0.69578  -0.69221  -0.68514  -0.67278  -0.66348
 Alpha  occ. eigenvalues --   -0.65427  -0.65079  -0.64713  -0.64392  -0.63908
 Alpha  occ. eigenvalues --   -0.63459  -0.63416  -0.62964  -0.62245  -0.61593
 Alpha  occ. eigenvalues --   -0.61224  -0.60448  -0.59252  -0.58784  -0.58334
 Alpha  occ. eigenvalues --   -0.57742  -0.57117  -0.56861  -0.56551  -0.55590
 Alpha  occ. eigenvalues --   -0.54949  -0.54729  -0.53986  -0.53279  -0.53053
 Alpha  occ. eigenvalues --   -0.52667  -0.52432  -0.52187  -0.51924  -0.51604
 Alpha  occ. eigenvalues --   -0.51007  -0.50539  -0.49376  -0.49187  -0.49163
 Alpha  occ. eigenvalues --   -0.48452  -0.48292  -0.48037  -0.47836  -0.47606
 Alpha  occ. eigenvalues --   -0.47359  -0.47165  -0.46832  -0.46750  -0.46567
 Alpha  occ. eigenvalues --   -0.46257  -0.46193  -0.46027  -0.45678  -0.45335
 Alpha  occ. eigenvalues --   -0.45087  -0.44899  -0.44820  -0.44473  -0.44145
 Alpha  occ. eigenvalues --   -0.43844  -0.43772  -0.43640  -0.43351  -0.43221
 Alpha  occ. eigenvalues --   -0.43083  -0.42855  -0.42687  -0.42420  -0.42205
 Alpha  occ. eigenvalues --   -0.41764  -0.41711  -0.41353  -0.41124  -0.40941
 Alpha  occ. eigenvalues --   -0.40714  -0.40491  -0.40181  -0.39878  -0.39749
 Alpha  occ. eigenvalues --   -0.39420  -0.39208  -0.39085  -0.38869  -0.38568
 Alpha  occ. eigenvalues --   -0.38390  -0.38323  -0.38155  -0.37231  -0.36871
 Alpha  occ. eigenvalues --   -0.36174  -0.36058  -0.35617  -0.35527  -0.35368
 Alpha  occ. eigenvalues --   -0.35107  -0.34987  -0.34783  -0.34537  -0.34432
 Alpha  occ. eigenvalues --   -0.34158  -0.33597  -0.33116  -0.32975  -0.32761
 Alpha  occ. eigenvalues --   -0.32369  -0.32256  -0.31681  -0.31327  -0.31272
 Alpha  occ. eigenvalues --   -0.30690  -0.30446  -0.30281  -0.27611  -0.27359
 Alpha  occ. eigenvalues --   -0.27291  -0.27198  -0.27062  -0.26796  -0.26004
 Alpha  occ. eigenvalues --   -0.25748  -0.25185  -0.24246  -0.23883  -0.23051
 Alpha  occ. eigenvalues --   -0.22868  -0.21660  -0.21245  -0.20715
 Alpha virt. eigenvalues --   -0.15407  -0.12477  -0.11560  -0.10897  -0.09744
 Alpha virt. eigenvalues --   -0.08401  -0.07446  -0.06165  -0.05871  -0.05782
 Alpha virt. eigenvalues --   -0.05242  -0.04704  -0.04460  -0.04331  -0.03600

 Mulliken charges:
               1
     1  C    0.009124
     2  C   -0.024948
     3  C   -0.021832
     4  C   -0.029856
     5  C    0.038184
     6  C   -0.029728
     7  C   -0.020699
     8  C   -0.033640
     9  C    0.046177
    10  C    0.091668
    11  C    0.061107
    12  C    0.054965
    13  C   -0.025914
    14  C   -0.031268
    15  C   -0.025427
    16  C   -0.028763
    17  C    0.021421
    18  C    0.050381
    19  C    0.081223
    20  C    0.050449
    21  C   -0.359984
    22  C   -0.019427
    23  C    0.083988
    24  C   -0.013898
    25  C   -0.006844
    26  C   -0.010795
    27  C   -0.020132
    28  C   -0.021065
    29  C    0.050368
    30  C   -0.015998
    31  C   -0.034938
    32  C   -0.011013
    33  C   -0.023507
    34  C   -0.021931
    35  C    0.039552
    36  C    0.044171
    37  C    0.043001
    38  C    0.041729
    39  C    0.053685
    40  C   -0.025712
    41  C   -0.022872
    42  C    0.061402
    43  C   -0.031560
    44  C    0.067194
    45  C    0.070007
    46  C   -0.035297
    47  C   -0.015759
    48  C   -0.025454
    49  C   -0.042307
    50  C   -0.024504
    51  C    0.118529
    52  C    0.032896
    53  C   -0.359955
    54  C    0.012988
    55  C    0.084019
    56  C   -0.005616
    57  C    0.122108
    58  C   -0.021726
    59  C    0.086138
    60  C   -0.026678
    61  C   -0.042692
    62  C   -0.021269
    63  C   -0.021569
    64  C    0.050962
    65  C   -0.031012
    66  C    0.044545
    67  C    0.051831
    68  C    0.046376
    69  C   -0.021178
    70  C   -0.025770
    71  C   -0.010353
    72  C    0.004811
    73  C   -0.011793
    74  C   -0.007967
    75  C   -0.000274
    76  C   -0.002298
    77  C   -0.024274
    78  C   -0.021225
    79  C   -0.020557
    80  C   -0.021183
    81  C   -0.001082
    82  C   -0.023276
    83  C    0.079265
    84  C    0.020125
    85  Cl  -0.020838
    86  Cl  -0.016729
 Sum of Mulliken charges =  -0.00000

 Dipole moment (field-independent basis, Debye):
    X=             -3.7326    Y=             -0.2058    Z=              0.1413  Tot=              3.7409
 Quadrupole moment (field-independent basis, Debye-Ang):
   XX=           -497.8793   YY=           -481.0327   ZZ=           -476.3188
   XY=              2.3036   XZ=              3.3026   YZ=             -1.7095

 Normal termination of Gaussian 16 at Mon Jun 27 06:03:24 2022.
