 Gaussian 16, Revision A.03,
 Gaussian 16:  ES64L-G16RevA.03 25-Dec-2016

 ------------------------------------------------
 #P opt b3lyp/6-31G(d, p) empiricaldispersion=GD3
 ------------------------------------------------

 -----
 force
 -----
 Symbolic Z-matrix:
 Charge =  0 Multiplicity = 1

 SCF Done:  E(RB3LYP) =  -4121.40076082     A.U. after   21 cycles
 SCF Done:  E(RB3LYP) =  -4121.41393107     A.U. after   15 cycles
 SCF Done:  E(RB3LYP) =  -4121.41430796     A.U. after   14 cycles
 SCF Done:  E(RB3LYP) =  -4121.41438264     A.U. after   11 cycles
 SCF Done:  E(RB3LYP) =  -4121.41439061     A.U. after    9 cycles
 Optimization completed.
    -- Stationary point found.

                         Input orientation:
 ---------------------------------------------------------------------
 Center     Atomic      Atomic             Coordinates (Angstroms)
 Number     Number       Type             X           Y           Z
 ---------------------------------------------------------------------
      1          6           0        0.970385    1.793656   -3.488915
      2          6           0       -2.998824    2.905541   -1.629246
      3          6           0        0.982611   -1.690285    3.530150
      4          6           0       -2.905792    0.670006    3.220372
      5          6           0        0.271573    0.608388   -3.824907
      6          6           0       -1.767383    3.602115   -1.827026
      7          6           0        0.119206   -2.742321    3.088743
      8          6           0       -1.610469    0.948600    3.769047
      9          6           0       -1.189850    0.604508   -3.734650
     10          6           0       -1.040773    4.163012   -0.748571
     11          6           0       -0.901502    2.121360    3.447157
     12          6           0       -1.281751   -2.561723    2.976992
     13          6           0       -1.825148    1.797463   -3.333812
     14          6           0       -1.787011   -1.356845    3.525048
     15          6           0       -1.081207    2.954387   -2.932455
     16          6           0       -0.931475   -0.314204    3.976248
     17          6           0        0.292381    2.949919   -2.996121
     18          6           0        0.478786   -0.414610    3.896414
     19          6           0        1.079762    3.561869   -1.933700
     20          6           0        1.250044    0.781059    3.586000
     21          6           0        2.290258    2.831851   -1.828823
     22          6           0        2.512114    0.577557    2.964074
     23          6           0        2.261935    1.767176   -2.835152
     24          6           0        2.977008   -0.713702    2.557704
     25          6           0        2.906367    0.586249   -2.623702
     26          6           0        2.226836   -1.816656    2.808006
     27          6           0        2.278381   -0.627295   -3.022749
     28          6           0        2.097165   -2.893602    1.829076
     29          6           0        0.998582   -0.637679   -3.655007
     30          6           0        0.845476   -3.511569    2.095956
     31          6           0        0.279146   -1.840468   -3.563894
     32          6           0        0.152101   -4.157638    1.092196
     33          6           0       -1.175025   -1.851424   -3.577224
     34          6           0       -1.299087   -4.081914    1.033841
     35          6           0       -1.918180   -0.649628   -3.525054
     36          6           0       -2.025918   -3.215136    1.889534
     37          6           0       -3.183078   -0.654548   -2.784098
     38          6           0       -3.234943   -2.577064    1.365300
     39          6           0       -3.710983    0.599475   -2.242244
     40          6           0       -4.338560    1.626329   -0.057283
     41          6           0       -4.317782    1.016833    1.275949
     42          6           0       -3.711003   -1.309017    1.951544
     43          6           0       -3.042502    1.791758   -2.553478
     44          6           0       -3.582863    2.796930   -0.335214
     45          6           0       -3.523339    1.575703    2.314843
     46          6           0       -3.005387   -0.751951    3.031942
     47          6           0       -2.903302    3.436006    0.739284
     48          6           0       -2.860933    2.807536    2.069489
     49          6           0       -1.685665    4.122505    0.532275
     50          6           0       -1.609634    3.098558    2.664235
     51          6           0        0.428811    4.134988   -0.796976
     52          6           0        0.563940    2.055222    3.360184
     53          6           0        1.151794    4.054229    0.417986
     54          6           0        1.207132    3.020027    2.550733
     55          6           0        0.458920    3.923561    1.689356
     56          6           0       -0.904881    3.964678    1.746767
     57          6           0        2.922196    2.601298   -0.575736
     58          6           0        3.057396    1.526921    2.044234
     59          6           0        3.612177    1.334040   -0.327414
     60          6           0        3.699451    0.847897    0.952429
     61          6           0        3.839021    0.348302   -1.455408
     62          6           0        3.861156   -0.626113    1.327181
     63          6           0        3.456826   -1.082493   -1.064489
     64          6           0        3.393787   -1.559097    0.216106
     65          6           0        2.660354   -1.658241   -2.111061
     66          6           0        2.572145   -2.733374    0.505780
     67          6           0        1.859842   -2.800993   -1.899822
     68          6           0        1.828777   -3.386013   -0.567741
     69          6           0        0.739035   -2.939895   -2.772291
     70          6           0        0.687474   -4.168746   -0.232116
     71          6           0       -0.413539   -3.704741   -2.379278
     72          6           0       -0.438096   -4.300955   -1.134312
     73          6           0       -1.594913   -3.040687   -2.900561
     74          6           0       -1.659385   -4.269764   -0.339872
     75          6           0       -2.767105   -3.028167   -2.160358
     76          6           0       -2.794304   -3.652374   -0.838307
     77          6           0       -3.571712   -1.854475   -2.131353
     78          6           0       -3.602868   -2.851127    0.024076
     79          6           0       -4.455635    0.589252   -1.012483
     80          6           0       -4.449679   -0.387124    1.133652
     81          6           0       -4.195065   -1.816397   -0.815682
     82          6           0       -4.621205   -0.641507   -0.276292
     83          6           0        2.364348    3.304908    0.522405
     84          6           0        2.418399    2.732740    1.848573
     85         17           0        5.612851    0.414932   -2.019409
     86         17           0        5.633498   -1.001819    1.763172
 ---------------------------------------------------------------------

 The electronic state is 1-A.
 Alpha  occ. eigenvalues -- -101.54669-101.54509 -10.29865 -10.29848 -10.25051
 Alpha  occ. eigenvalues --  -10.24994 -10.24989 -10.24951 -10.24914 -10.24905
 Alpha  occ. eigenvalues --  -10.24889 -10.24843 -10.24755 -10.24754 -10.24711
 Alpha  occ. eigenvalues --  -10.24660 -10.24647 -10.24592 -10.24557 -10.24534
 Alpha  occ. eigenvalues --  -10.24521 -10.24395 -10.24351 -10.24273 -10.24197
 Alpha  occ. eigenvalues --  -10.24178 -10.24127 -10.24010 -10.23990 -10.23979
 Alpha  occ. eigenvalues --  -10.23958 -10.23893 -10.23863 -10.23834 -10.23809
 Alpha  occ. eigenvalues --  -10.23731 -10.23668 -10.23643 -10.23637 -10.23631
 Alpha  occ. eigenvalues --  -10.23631 -10.23630 -10.23626 -10.23601 -10.23596
 Alpha  occ. eigenvalues --  -10.23544 -10.23534 -10.23526 -10.23498 -10.23493
 Alpha  occ. eigenvalues --  -10.23490 -10.23473 -10.23439 -10.23406 -10.23378
 Alpha  occ. eigenvalues --  -10.23313 -10.23305 -10.23280 -10.23274 -10.23270
 Alpha  occ. eigenvalues --  -10.23141 -10.23097 -10.23061 -10.23040 -10.23031
 Alpha  occ. eigenvalues --  -10.23025 -10.22967 -10.22967 -10.22920 -10.22840
 Alpha  occ. eigenvalues --  -10.22834 -10.22824 -10.22793 -10.22768 -10.22767
 Alpha  occ. eigenvalues --  -10.22751 -10.22735 -10.22673 -10.22616 -10.22510
 Alpha  occ. eigenvalues --  -10.22476 -10.22464 -10.22446 -10.22302 -10.22191
 Alpha  occ. eigenvalues --  -10.21975  -9.46201  -9.46043  -7.22633  -7.22472
 Alpha  occ. eigenvalues --   -7.21610  -7.21600  -7.21453  -7.21442  -0.97276
 Alpha  occ. eigenvalues --   -0.96191  -0.95755  -0.95621  -0.93814  -0.93645
 Alpha  occ. eigenvalues --   -0.93354  -0.92917  -0.92434  -0.90394  -0.90237
 Alpha  occ. eigenvalues --   -0.89861  -0.88962  -0.88659  -0.88348  -0.88094
 Alpha  occ. eigenvalues --   -0.85684  -0.85573  -0.84801  -0.84468  -0.83688
 Alpha  occ. eigenvalues --   -0.83426  -0.83323  -0.83198  -0.83024  -0.81873
 Alpha  occ. eigenvalues --   -0.81491  -0.79144  -0.78857  -0.78362  -0.78160
 Alpha  occ. eigenvalues --   -0.78055  -0.78001  -0.77880  -0.77272  -0.76841
 Alpha  occ. eigenvalues --   -0.76468  -0.74973  -0.73116  -0.73030  -0.72793
 Alpha  occ. eigenvalues --   -0.72317  -0.71510  -0.71348  -0.70861  -0.70035
 Alpha  occ. eigenvalues --   -0.69655  -0.69160  -0.68509  -0.67420  -0.66474
 Alpha  occ. eigenvalues --   -0.65491  -0.65107  -0.64695  -0.64408  -0.63895
 Alpha  occ. eigenvalues --   -0.63494  -0.63338  -0.62809  -0.62145  -0.61632
 Alpha  occ. eigenvalues --   -0.61352  -0.60418  -0.59374  -0.58884  -0.58417
 Alpha  occ. eigenvalues --   -0.57372  -0.57249  -0.57049  -0.56424  -0.55570
 Alpha  occ. eigenvalues --   -0.54930  -0.54750  -0.53900  -0.53283  -0.53089
 Alpha  occ. eigenvalues --   -0.52753  -0.52321  -0.52241  -0.52055  -0.51556
 Alpha  occ. eigenvalues --   -0.51122  -0.50565  -0.49501  -0.49202  -0.48762
 Alpha  occ. eigenvalues --   -0.48512  -0.48243  -0.48103  -0.47763  -0.47541
 Alpha  occ. eigenvalues --   -0.47498  -0.47242  -0.46980  -0.46760  -0.46684
 Alpha  occ. eigenvalues --   -0.46360  -0.46116  -0.45931  -0.45808  -0.45215
 Alpha  occ. eigenvalues --   -0.45177  -0.44855  -0.44639  -0.44213  -0.44178
 Alpha  occ. eigenvalues --   -0.43948  -0.43857  -0.43801  -0.43473  -0.43354
 Alpha  occ. eigenvalues --   -0.43105  -0.42806  -0.42650  -0.42504  -0.42052
 Alpha  occ. eigenvalues --   -0.41776  -0.41720  -0.41189  -0.41002  -0.40872
 Alpha  occ. eigenvalues --   -0.40712  -0.40290  -0.40160  -0.39858  -0.39806
 Alpha  occ. eigenvalues --   -0.39670  -0.39139  -0.39050  -0.38973  -0.38734
 Alpha  occ. eigenvalues --   -0.38566  -0.38489  -0.38271  -0.36988  -0.36794
 Alpha  occ. eigenvalues --   -0.36312  -0.36103  -0.35719  -0.35663  -0.35514
 Alpha  occ. eigenvalues --   -0.35039  -0.34903  -0.34519  -0.34421  -0.34351
 Alpha  occ. eigenvalues --   -0.34106  -0.33674  -0.33219  -0.32874  -0.32709
 Alpha  occ. eigenvalues --   -0.32646  -0.32436  -0.31509  -0.31190  -0.30998
 Alpha  occ. eigenvalues --   -0.30633  -0.30538  -0.30106  -0.27557  -0.27398
 Alpha  occ. eigenvalues --   -0.27280  -0.27251  -0.27148  -0.26694  -0.26359
 Alpha  occ. eigenvalues --   -0.25873  -0.25555  -0.24596  -0.23678  -0.23062
 Alpha  occ. eigenvalues --   -0.22517  -0.21279  -0.21209  -0.20539
 Alpha virt. eigenvalues --   -0.15172  -0.13103  -0.11831  -0.10751  -0.09617
 Alpha virt. eigenvalues --   -0.08110  -0.07500  -0.06408  -0.06068  -0.05534
 Alpha virt. eigenvalues --   -0.05249  -0.04870  -0.04311  -0.04121  -0.03910

 Mulliken charges:
               1
     1  C   -0.025709
     2  C   -0.023390
     3  C   -0.022190
     4  C   -0.032089
     5  C    0.049297
     6  C   -0.023818
     7  C   -0.022730
     8  C   -0.031475
     9  C    0.038955
    10  C    0.063389
    11  C    0.057565
    12  C    0.054313
    13  C   -0.027192
    14  C   -0.031828
    15  C   -0.013289
    16  C   -0.032157
    17  C   -0.011916
    18  C    0.051678
    19  C   -0.014500
    20  C    0.035168
    21  C   -0.040266
    22  C    0.011476
    23  C    0.003718
    24  C    0.075852
    25  C    0.076139
    26  C   -0.000390
    27  C    0.016285
    28  C   -0.039522
    29  C    0.040916
    30  C   -0.010195
    31  C   -0.029297
    32  C   -0.012190
    33  C   -0.025332
    34  C   -0.022188
    35  C    0.042602
    36  C    0.045269
    37  C    0.041433
    38  C    0.041452
    39  C    0.054543
    40  C   -0.026511
    41  C   -0.025365
    42  C    0.063419
    43  C   -0.031747
    44  C    0.066078
    45  C    0.070898
    46  C   -0.036887
    47  C   -0.021787
    48  C   -0.022947
    49  C   -0.025208
    50  C   -0.025050
    51  C    0.052218
    52  C    0.048382
    53  C   -0.021547
    54  C   -0.020439
    55  C   -0.002641
    56  C   -0.016330
    57  C    0.084888
    58  C    0.018784
    59  C    0.121823
    60  C    0.080625
    61  C   -0.362707
    62  C   -0.359260
    63  C    0.075855
    64  C    0.119408
    65  C    0.002559
    66  C    0.069747
    67  C    0.044117
    68  C    0.040726
    69  C   -0.018765
    70  C   -0.023794
    71  C   -0.010177
    72  C    0.006994
    73  C   -0.011555
    74  C   -0.009641
    75  C   -0.000068
    76  C   -0.000866
    77  C   -0.023988
    78  C   -0.022467
    79  C   -0.020261
    80  C   -0.024383
    81  C    0.001657
    82  C   -0.025374
    83  C   -0.023933
    84  C   -0.021050
    85  Cl  -0.019367
    86  Cl  -0.022452
 Sum of Mulliken charges =  -0.00000

 Dipole moment (field-independent basis, Debye):
    X=             -2.9930    Y=             -0.0983    Z=             -0.6403  Tot=              3.0623
 Quadrupole moment (field-independent basis, Debye-Ang):
   XX=           -502.6586   YY=           -473.8625   ZZ=           -479.0614
   XY=              4.3444   XZ=              2.2725   YZ=              2.4654

 Normal termination of Gaussian 16 at Mon Jun 27 19:47:40 2022.
