 Gaussian 16, Revision A.03,
 Gaussian 16:  ES64L-G16RevA.03 25-Dec-2016

 ------------------------------------------------
 #P opt b3lyp/6-31G(d, p) empiricaldispersion=GD3
 ------------------------------------------------

 -----
 force
 -----
 Symbolic Z-matrix:
 Charge =  0 Multiplicity = 1

 SCF Done:  E(RB3LYP) =  -4121.39303822     A.U. after   23 cycles
 SCF Done:  E(RB3LYP) =  -4121.40620548     A.U. after   17 cycles
 SCF Done:  E(RB3LYP) =  -4121.40662878     A.U. after   12 cycles
 SCF Done:  E(RB3LYP) =  -4121.40672818     A.U. after   12 cycles
 SCF Done:  E(RB3LYP) =  -4121.40673822     A.U. after   11 cycles
 Optimization completed.
    -- Stationary point found.

                         Input orientation:
 ---------------------------------------------------------------------
 Center     Atomic      Atomic             Coordinates (Angstroms)
 Number     Number       Type             X           Y           Z
 ---------------------------------------------------------------------
      1          6           0        0.990623    0.679203    3.854280
      2          6           0        3.680521   -1.657451    0.828879
      3          6           0       -2.806081    1.730475   -2.947450
      4          6           0        0.951386   -0.690242   -3.845713
      5          6           0        0.221108   -0.508977    3.829201
      6          6           0        3.602292   -0.266938    1.444799
      7          6           0       -3.365978    0.413534   -2.907983
      8          6           0        0.630127    0.711737   -3.877260
      9          6           0        0.796758   -1.703211    3.208116
     10          6           0        3.701005    0.921810    0.761304
     11          6           0        1.425270    1.673225   -3.229686
     12          6           0       -2.619677   -0.732755   -3.283624
     13          6           0        2.099086   -1.603611    2.658410
     14          6           0       -1.365626   -0.470258   -3.882834
     15          6           0        2.819049   -0.361354    2.641886
     16          6           0       -0.807412    0.840348   -3.928620
     17          6           0        2.267590    0.761304    3.217925
     18          6           0       -1.469173    1.961555   -3.368561
     19          6           0        2.407216    2.039676    2.560209
     20          6           0       -0.669487    3.007019   -2.728099
     21          6           0        1.230211    2.804918    2.855902
     22          6           0       -1.307454    3.790656   -1.731336
     23          6           0        0.381293    1.987671    3.702765
     24          6           0       -2.626380    3.455169   -1.239877
     25          6           0       -0.985101    2.116163    3.650454
     26          6           0       -3.360231    2.465394   -1.831189
     27          6           0       -1.809990    0.945901    3.766717
     28          6           0       -4.180854    1.576445   -1.032159
     29          6           0       -1.228930   -0.352497    3.870221
     30          6           0       -4.267157    0.358305   -1.773961
     31          6           0       -2.031195   -1.420585    3.435197
     32          6           0       -4.482514   -0.832564   -1.124942
     33          6           0       -1.450444   -2.645103    2.919401
     34          6           0       -3.820436   -2.045393   -1.577209
     35          6           0       -0.054901   -2.757912    2.682393
     36          6           0       -2.815588   -2.006888   -2.576074
     37          6           0        0.389297   -3.558831    1.544210
     38          6           0       -1.700438   -2.951398   -2.471694
     39          6           0        1.701770   -3.307494    0.940679
     40          6           0        2.686967   -2.648988   -1.250228
     41          6           0        2.008509   -2.419581   -2.516214
     42          6           0       -0.403406   -2.632407   -3.098693
     43          6           0        2.535684   -2.380858    1.551767
     44          6           0        3.486116   -1.627249   -0.663105
     45          6           0        2.099114   -1.159031   -3.154723
     46          6           0       -0.277864   -1.424672   -3.815968
     47          6           0        3.674076   -0.452486   -1.354299
     48          6           0        2.960350   -0.187983   -2.578026
     49          6           0        4.068294    0.869444   -0.711025
     50          6           0        2.659303    1.201387   -2.656358
     51          6           0        3.074676    2.124561    1.316554
     52          6           0        0.784333    2.859749   -2.656269
     53          6           0        2.607071    3.147234    0.438629
     54          6           0        1.471132    3.505839   -1.601400
     55          6           0        2.674477    2.955083   -1.007014
     56          6           0        3.263000    1.851233   -1.541401
     57          6           0        0.665781    3.691068    1.908301
     58          6           0       -0.592177    4.306318   -0.606930
     59          6           0       -0.797527    3.816895    1.838108
     60          6           0       -1.403189    4.144720    0.597570
     61          6           0       -1.597738    3.038811    2.719068
     62          6           0       -2.659356    3.603338    0.203021
     63          6           0       -2.834124    2.456371    2.307493
     64          6           0       -3.365709    2.662681    1.014500
     65          6           0       -2.974969    1.170576    2.971544
     66          6           0       -4.135418    1.586152    0.383682
     67          6           0       -3.698243    0.107358    2.389254
     68          6           0       -4.328684    0.312678    1.081948
     69          6           0       -3.293272   -1.202235    2.784911
     70          6           0       -4.593405   -0.848037    0.307696
     71          6           0       -3.548073   -2.343278    1.950276
     72          6           0       -4.184279   -2.168092    0.737476
     73          6           0       -2.419343   -3.250663    2.061162
     74          6           0       -3.727133   -2.905503   -0.434359
     75          6           0       -1.991881   -3.970135    0.954582
     76          6           0       -2.665593   -3.786824   -0.331663
     77          6           0       -0.602467   -4.158623    0.721522
     78          6           0       -1.684138   -3.839140   -1.368149
     79          6           0        1.893209   -3.526137   -0.477908
     80          6           0        0.799142   -3.169910   -2.538906
     81          6           0       -0.428623   -4.204470   -0.721234
     82          6           0        0.770564   -3.906277   -1.300406
     83          6           0        1.438300    3.896011    0.721404
     84          6           0        0.775633    4.176493   -0.544704
     85         17           0        5.892273    1.186484   -0.922011
     86         17           0        5.310547   -2.470649    1.258660
 ---------------------------------------------------------------------

 The electronic state is 1-A.
 Alpha  occ. eigenvalues -- -101.54559-101.54326 -10.29689 -10.29667 -10.25245
 Alpha  occ. eigenvalues --  -10.25111 -10.25107 -10.25092 -10.25006 -10.24946
 Alpha  occ. eigenvalues --  -10.24933 -10.24798 -10.24728 -10.24718 -10.24687
 Alpha  occ. eigenvalues --  -10.24586 -10.24582 -10.24557 -10.24521 -10.24509
 Alpha  occ. eigenvalues --  -10.24402 -10.24394 -10.24378 -10.24302 -10.24300
 Alpha  occ. eigenvalues --  -10.24236 -10.24222 -10.24176 -10.24146 -10.24024
 Alpha  occ. eigenvalues --  -10.23961 -10.23889 -10.23886 -10.23877 -10.23866
 Alpha  occ. eigenvalues --  -10.23842 -10.23831 -10.23800 -10.23778 -10.23774
 Alpha  occ. eigenvalues --  -10.23772 -10.23756 -10.23742 -10.23666 -10.23621
 Alpha  occ. eigenvalues --  -10.23584 -10.23562 -10.23545 -10.23525 -10.23493
 Alpha  occ. eigenvalues --  -10.23489 -10.23444 -10.23404 -10.23335 -10.23287
 Alpha  occ. eigenvalues --  -10.23286 -10.23272 -10.23260 -10.23145 -10.23108
 Alpha  occ. eigenvalues --  -10.23083 -10.23074 -10.23064 -10.23032 -10.23020
 Alpha  occ. eigenvalues --  -10.22983 -10.22976 -10.22901 -10.22890 -10.22881
 Alpha  occ. eigenvalues --  -10.22873 -10.22840 -10.22839 -10.22818 -10.22772
 Alpha  occ. eigenvalues --  -10.22768 -10.22740 -10.22709 -10.22652 -10.22649
 Alpha  occ. eigenvalues --  -10.22630 -10.22572 -10.22419 -10.22415 -10.22400
 Alpha  occ. eigenvalues --  -10.22373  -9.46095  -9.45855  -7.22523  -7.22276
 Alpha  occ. eigenvalues --   -7.21505  -7.21494  -7.21265  -7.21263  -0.97245
 Alpha  occ. eigenvalues --   -0.96255  -0.95789  -0.95603  -0.93892  -0.93636
 Alpha  occ. eigenvalues --   -0.93333  -0.93045  -0.92439  -0.90596  -0.90310
 Alpha  occ. eigenvalues --   -0.89654  -0.89135  -0.88478  -0.88267  -0.88096
 Alpha  occ. eigenvalues --   -0.86380  -0.84925  -0.84744  -0.84187  -0.84059
 Alpha  occ. eigenvalues --   -0.83694  -0.83497  -0.83133  -0.83111  -0.81794
 Alpha  occ. eigenvalues --   -0.81124  -0.79163  -0.78864  -0.78452  -0.78408
 Alpha  occ. eigenvalues --   -0.78197  -0.78038  -0.77803  -0.77192  -0.76691
 Alpha  occ. eigenvalues --   -0.76460  -0.75131  -0.73156  -0.73002  -0.72743
 Alpha  occ. eigenvalues --   -0.72374  -0.71584  -0.71432  -0.70850  -0.70115
 Alpha  occ. eigenvalues --   -0.69715  -0.69174  -0.68510  -0.67382  -0.66521
 Alpha  occ. eigenvalues --   -0.65513  -0.65113  -0.64789  -0.64434  -0.63955
 Alpha  occ. eigenvalues --   -0.63567  -0.63177  -0.62838  -0.62395  -0.61697
 Alpha  occ. eigenvalues --   -0.61274  -0.60581  -0.59283  -0.58919  -0.58170
 Alpha  occ. eigenvalues --   -0.57617  -0.57310  -0.56985  -0.56468  -0.55818
 Alpha  occ. eigenvalues --   -0.54975  -0.54731  -0.54059  -0.53360  -0.52994
 Alpha  occ. eigenvalues --   -0.52766  -0.52361  -0.52099  -0.51876  -0.51515
 Alpha  occ. eigenvalues --   -0.51335  -0.50665  -0.49274  -0.49172  -0.48923
 Alpha  occ. eigenvalues --   -0.48652  -0.48429  -0.48005  -0.47899  -0.47612
 Alpha  occ. eigenvalues --   -0.47461  -0.47353  -0.47021  -0.46737  -0.46552
 Alpha  occ. eigenvalues --   -0.46427  -0.46092  -0.45851  -0.45609  -0.45338
 Alpha  occ. eigenvalues --   -0.45152  -0.44955  -0.44767  -0.44432  -0.44122
 Alpha  occ. eigenvalues --   -0.43987  -0.43821  -0.43740  -0.43485  -0.43350
 Alpha  occ. eigenvalues --   -0.43214  -0.42831  -0.42651  -0.42587  -0.42169
 Alpha  occ. eigenvalues --   -0.41749  -0.41690  -0.41364  -0.41218  -0.40879
 Alpha  occ. eigenvalues --   -0.40649  -0.40472  -0.40324  -0.39833  -0.39490
 Alpha  occ. eigenvalues --   -0.39422  -0.39174  -0.39126  -0.38975  -0.38734
 Alpha  occ. eigenvalues --   -0.38634  -0.38465  -0.38252  -0.37408  -0.36779
 Alpha  occ. eigenvalues --   -0.36305  -0.35994  -0.35661  -0.35622  -0.35327
 Alpha  occ. eigenvalues --   -0.35094  -0.34956  -0.34903  -0.34485  -0.34316
 Alpha  occ. eigenvalues --   -0.33922  -0.33642  -0.33356  -0.33176  -0.32906
 Alpha  occ. eigenvalues --   -0.32555  -0.32467  -0.31471  -0.31068  -0.31041
 Alpha  occ. eigenvalues --   -0.30507  -0.30171  -0.29949  -0.27563  -0.27425
 Alpha  occ. eigenvalues --   -0.27311  -0.27254  -0.27192  -0.26820  -0.26576
 Alpha  occ. eigenvalues --   -0.26124  -0.25090  -0.24715  -0.23788  -0.23013
 Alpha  occ. eigenvalues --   -0.22578  -0.21529  -0.21453  -0.19664
 Alpha virt. eigenvalues --   -0.15659  -0.13304  -0.11336  -0.10630  -0.10276
 Alpha virt. eigenvalues --   -0.08529  -0.07446  -0.06283  -0.05745  -0.05650
 Alpha virt. eigenvalues --   -0.05419  -0.04873  -0.04339  -0.04080  -0.03632

 Mulliken charges:
               1
     1  C   -0.022744
     2  C   -0.362417
     3  C   -0.024765
     4  C   -0.029893
     5  C    0.053945
     6  C    0.079912
     7  C   -0.022790
     8  C   -0.030004
     9  C    0.028187
    10  C    0.123593
    11  C    0.049294
    12  C    0.054000
    13  C    0.020150
    14  C   -0.030962
    15  C    0.018652
    16  C   -0.032179
    17  C   -0.018887
    18  C    0.054851
    19  C   -0.024836
    20  C    0.042421
    21  C   -0.022852
    22  C   -0.023303
    23  C   -0.000226
    24  C   -0.014003
    25  C   -0.019925
    26  C   -0.012894
    27  C   -0.021615
    28  C   -0.019510
    29  C    0.048984
    30  C   -0.015737
    31  C   -0.030823
    32  C   -0.011820
    33  C   -0.022348
    34  C   -0.021804
    35  C    0.039896
    36  C    0.046087
    37  C    0.039970
    38  C    0.041085
    39  C    0.065626
    40  C    0.006306
    41  C   -0.028738
    42  C    0.065090
    43  C    0.046232
    44  C    0.149780
    45  C    0.064812
    46  C   -0.035038
    47  C    0.072556
    48  C    0.004477
    49  C   -0.361239
    50  C    0.010741
    51  C    0.084984
    52  C    0.045487
    53  C   -0.037953
    54  C   -0.022584
    55  C    0.000709
    56  C    0.076968
    57  C    0.055496
    58  C   -0.011630
    59  C    0.058488
    60  C   -0.021113
    61  C   -0.024743
    62  C   -0.019204
    63  C   -0.029036
    64  C    0.050468
    65  C   -0.028139
    66  C    0.045169
    67  C    0.052429
    68  C    0.044047
    69  C   -0.023876
    70  C   -0.024647
    71  C   -0.010619
    72  C    0.006021
    73  C   -0.013650
    74  C   -0.008885
    75  C    0.001725
    76  C   -0.000769
    77  C   -0.024715
    78  C   -0.020519
    79  C   -0.040537
    80  C   -0.026675
    81  C    0.006234
    82  C   -0.021579
    83  C   -0.015760
    84  C   -0.014345
    85  Cl  -0.021824
    86  Cl  -0.030723
 Sum of Mulliken charges =  -0.00000

 Dipole moment (field-independent basis, Debye):
    X=             -3.9026    Y=              0.1610    Z=              0.5436  Tot=              3.9435
 Quadrupole moment (field-independent basis, Debye-Ang):
   XX=           -501.6790   YY=           -477.2997   ZZ=           -477.3682
   XY=              5.9630   XZ=              0.2995   YZ=              1.2713

 Normal termination of Gaussian 16 at Mon Jun 27 04:34:51 2022.
