 Gaussian 16, Revision A.03,
 Gaussian 16:  ES64L-G16RevA.03 25-Dec-2016

 ------------------------------------------------
 #P opt b3lyp/6-31G(d, p) empiricaldispersion=GD3
 ------------------------------------------------

 -----
 force
 -----
 Symbolic Z-matrix:
 Charge =  0 Multiplicity = 1

 SCF Done:  E(RB3LYP) =  -4121.37962852     A.U. after   28 cycles
 SCF Done:  E(RB3LYP) =  -4121.39416388     A.U. after   20 cycles
 SCF Done:  E(RB3LYP) =  -4121.39485933     A.U. after   18 cycles
 SCF Done:  E(RB3LYP) =  -4121.39498090     A.U. after   15 cycles
 SCF Done:  E(RB3LYP) =  -4121.39499374     A.U. after   13 cycles
 SCF Done:  E(RB3LYP) =  -4121.39499791     A.U. after   12 cycles
 Optimization completed.
    -- Stationary point found.

                         Input orientation:
 ---------------------------------------------------------------------
 Center     Atomic      Atomic             Coordinates (Angstroms)
 Number     Number       Type             X           Y           Z
 ---------------------------------------------------------------------
      1          6           0       -2.767560    0.142364   -3.398172
      2          6           0        0.175369   -3.186842   -2.634053
      3          6           0       -0.308093    1.207742    3.950763
      4          6           0        1.697551   -2.545194    2.378104
      5          6           0       -1.598753    0.893516   -3.666580
      6          6           0       -1.244644   -3.139448   -2.704279
      7          6           0        0.933351    1.796792    3.519071
      8          6           0        0.527401   -2.307830    3.142261
      9          6           0       -0.340162    0.167376   -3.872073
     10          6           0       -2.061465   -3.529961   -1.604221
     11          6           0       -0.741415   -2.873067    2.786075
     12          6           0        2.004640    0.998492    3.044939
     13          6           0       -0.383548   -1.253081   -3.836547
     14          6           0        1.855607   -0.397366    3.242406
     15          6           0       -1.585392   -1.976831   -3.501688
     16          6           0        0.622964   -0.991132    3.707849
     17          6           0       -2.745869   -1.292139   -3.265893
     18          6           0       -0.516789   -0.209025    3.956478
     19          6           0       -3.641597   -1.696370   -2.193046
     20          6           0       -1.842280   -0.757435    3.634544
     21          6           0       -4.282797   -0.519416   -1.710276
     22          6           0       -2.874796    0.179898    3.376956
     23          6           0       -3.793749    0.608257   -2.496205
     24          6           0       -2.603968    1.590400    3.261848
     25          6           0       -3.698366    1.855016   -1.930562
     26          6           0       -1.358002    2.095233    3.553782
     27          6           0       -2.597981    2.711878   -2.281444
     28          6           0       -0.793906    3.182349    2.772847
     29          6           0       -1.562024    2.253897   -3.144896
     30          6           0        0.629514    3.045315    2.877922
     31          6           0       -0.317051    2.886582   -2.994085
     32          6           0        1.449686    3.511910    1.870704
     33          6           0        0.926064    2.194364   -3.289018
     34          6           0        2.640731    2.798961    1.483199
     35          6           0        0.938949    0.809521   -3.613306
     36          6           0        2.858825    1.465256    1.957489
     37          6           0        2.079851    0.019517   -3.159795
     38          6           0        3.499481    0.493525    1.099854
     39          6           0        1.930422   -1.404659   -2.961733
     40          6           0        2.109800   -3.140095   -1.161051
     41          6           0        2.534594   -3.013050    0.155915
     42          6           0        3.293519   -0.885658    1.321345
     43          6           0        0.702440   -2.016607   -3.321258
     44          6           0        0.838879   -3.709210   -1.495921
     45          6           0        1.671945   -3.384608    1.237823
     46          6           0        2.509624   -1.325252    2.402628
     47          6           0        0.042360   -4.213076   -0.440704
     48          6           0        0.456702   -4.037409    0.932137
     49          6           0       -1.388645   -4.135706   -0.503120
     50          6           0       -0.726123   -3.814384    1.726379
     51          6           0       -3.299948   -2.782321   -1.339809
     52          6           0       -1.952132   -2.091474    3.043479
     53          6           0       -3.770947   -2.678350   -0.000786
     54          6           0       -3.095846   -2.374414    2.239970
     55          6           0       -3.015463   -3.250175    1.103148
     56          6           0       -1.859053   -3.954240    0.848536
     57          6           0       -4.609959   -0.353185   -0.336904
     58          6           0       -3.927614   -0.096480    2.437949
     59          6           0       -4.494589    0.984969    0.266310
     60          6           0       -4.184661    1.091147    1.642027
     61          6           0       -4.058545    2.070596   -0.545065
     62          6           0       -3.343673    2.133860    2.148708
     63          6           0       -3.192406    3.085495   -0.049807
     64          6           0       -2.750430    3.111734    1.291794
     65          6           0       -2.302736    3.501371   -1.130399
     66          6           0       -1.414412    3.643055    1.592923
     67          6           0       -1.011793    4.006974   -0.881760
     68          6           0       -0.545157    4.118904    0.505717
     69          6           0       -0.067263    3.814105   -1.933715
     70          6           0        0.853034    4.129076    0.712898
     71          6           0        1.350489    3.799485   -1.671588
     72          6           0        1.796128    3.940396   -0.374189
     73          6           0        1.961065    2.817399   -2.533535
     74          6           0        2.905109    3.132462    0.112320
     75          6           0        3.017260    2.046158   -2.040514
     76          6           0        3.538358    2.240755   -0.732078
     77          6           0        3.102829    0.658103   -2.396349
     78          6           0        4.132146    0.951618   -0.214554
     79          6           0        2.677242   -2.043631   -1.936225
     80          6           0        3.621565   -1.939467    0.265269
     81          6           0        3.793446   -0.012036   -1.349018
     82          6           0        3.591481   -1.342953   -1.124153
     83          6           0       -4.404482   -1.496435    0.483457
     84          6           0       -4.033977   -1.348180    1.883970
     85         17           0        5.245206   -2.737877    0.657691
     86         17           0        5.992313    1.090478   -0.022896
 ---------------------------------------------------------------------

 The electronic state is 1-A.
 Alpha  occ. eigenvalues -- -101.55082-101.53828 -10.30085 -10.29341 -10.26026
 Alpha  occ. eigenvalues --  -10.25654 -10.25430 -10.25409 -10.25377 -10.25261
 Alpha  occ. eigenvalues --  -10.25233 -10.25002 -10.24950 -10.24869 -10.24733
 Alpha  occ. eigenvalues --  -10.24620 -10.24618 -10.24606 -10.24604 -10.24559
 Alpha  occ. eigenvalues --  -10.24495 -10.24446 -10.24436 -10.24436 -10.24388
 Alpha  occ. eigenvalues --  -10.24327 -10.24327 -10.24324 -10.24302 -10.24258
 Alpha  occ. eigenvalues --  -10.24122 -10.24106 -10.24056 -10.23914 -10.23911
 Alpha  occ. eigenvalues --  -10.23905 -10.23892 -10.23870 -10.23814 -10.23806
 Alpha  occ. eigenvalues --  -10.23804 -10.23784 -10.23756 -10.23661 -10.23622
 Alpha  occ. eigenvalues --  -10.23598 -10.23548 -10.23531 -10.23524 -10.23511
 Alpha  occ. eigenvalues --  -10.23431 -10.23407 -10.23395 -10.23360 -10.23332
 Alpha  occ. eigenvalues --  -10.23279 -10.23239 -10.23222 -10.23122 -10.23086
 Alpha  occ. eigenvalues --  -10.23041 -10.22996 -10.22979 -10.22942 -10.22942
 Alpha  occ. eigenvalues --  -10.22876 -10.22856 -10.22711 -10.22635 -10.22630
 Alpha  occ. eigenvalues --  -10.22619 -10.22587 -10.22557 -10.22552 -10.22539
 Alpha  occ. eigenvalues --  -10.22530 -10.22473 -10.22434 -10.22417 -10.22331
 Alpha  occ. eigenvalues --  -10.22239 -10.22212 -10.22021 -10.21849 -10.21807
 Alpha  occ. eigenvalues --  -10.21570  -9.46609  -9.45365  -7.23059  -7.22008
 Alpha  occ. eigenvalues --   -7.22000  -7.21783  -7.20778  -7.20773  -0.97441
 Alpha  occ. eigenvalues --   -0.96218  -0.96015  -0.95454  -0.93872  -0.93630
 Alpha  occ. eigenvalues --   -0.93337  -0.93037  -0.92379  -0.90882  -0.90073
 Alpha  occ. eigenvalues --   -0.89694  -0.89005  -0.88704  -0.88246  -0.87929
 Alpha  occ. eigenvalues --   -0.86013  -0.85803  -0.84853  -0.84165  -0.83774
 Alpha  occ. eigenvalues --   -0.83491  -0.83393  -0.83218  -0.82976  -0.81846
 Alpha  occ. eigenvalues --   -0.81290  -0.79371  -0.78998  -0.78562  -0.78350
 Alpha  occ. eigenvalues --   -0.78056  -0.77899  -0.77396  -0.77151  -0.76590
 Alpha  occ. eigenvalues --   -0.76301  -0.75374  -0.73068  -0.73010  -0.72653
 Alpha  occ. eigenvalues --   -0.72422  -0.71389  -0.71260  -0.71031  -0.70087
 Alpha  occ. eigenvalues --   -0.69603  -0.69105  -0.68525  -0.67486  -0.66498
 Alpha  occ. eigenvalues --   -0.65565  -0.65339  -0.64502  -0.64414  -0.63812
 Alpha  occ. eigenvalues --   -0.63506  -0.63116  -0.62704  -0.62261  -0.61736
 Alpha  occ. eigenvalues --   -0.61497  -0.60604  -0.59221  -0.58863  -0.58151
 Alpha  occ. eigenvalues --   -0.57571  -0.57373  -0.57029  -0.56628  -0.55745
 Alpha  occ. eigenvalues --   -0.54921  -0.54766  -0.53879  -0.53517  -0.53077
 Alpha  occ. eigenvalues --   -0.52672  -0.52429  -0.52249  -0.52042  -0.51478
 Alpha  occ. eigenvalues --   -0.51146  -0.50594  -0.49305  -0.49146  -0.48958
 Alpha  occ. eigenvalues --   -0.48629  -0.48326  -0.48034  -0.47890  -0.47764
 Alpha  occ. eigenvalues --   -0.47411  -0.47288  -0.46784  -0.46659  -0.46490
 Alpha  occ. eigenvalues --   -0.46410  -0.46102  -0.46042  -0.45729  -0.45403
 Alpha  occ. eigenvalues --   -0.45083  -0.45016  -0.44886  -0.44330  -0.44193
 Alpha  occ. eigenvalues --   -0.44005  -0.43780  -0.43528  -0.43402  -0.43331
 Alpha  occ. eigenvalues --   -0.43183  -0.42918  -0.42719  -0.42444  -0.42063
 Alpha  occ. eigenvalues --   -0.41770  -0.41599  -0.41307  -0.41200  -0.40628
 Alpha  occ. eigenvalues --   -0.40517  -0.40336  -0.40209  -0.40049  -0.39823
 Alpha  occ. eigenvalues --   -0.39501  -0.39297  -0.39120  -0.38865  -0.38727
 Alpha  occ. eigenvalues --   -0.38430  -0.38279  -0.38115  -0.37698  -0.36605
 Alpha  occ. eigenvalues --   -0.36426  -0.36097  -0.35716  -0.35504  -0.35500
 Alpha  occ. eigenvalues --   -0.35360  -0.35027  -0.34489  -0.34373  -0.34303
 Alpha  occ. eigenvalues --   -0.34172  -0.33574  -0.33386  -0.33048  -0.32701
 Alpha  occ. eigenvalues --   -0.32587  -0.32200  -0.31590  -0.31342  -0.30969
 Alpha  occ. eigenvalues --   -0.30352  -0.30179  -0.29786  -0.27727  -0.27677
 Alpha  occ. eigenvalues --   -0.27339  -0.27178  -0.27139  -0.27069  -0.26048
 Alpha  occ. eigenvalues --   -0.25877  -0.24904  -0.24506  -0.23822  -0.23035
 Alpha  occ. eigenvalues --   -0.22422  -0.21748  -0.21118  -0.18771
 Alpha virt. eigenvalues --   -0.16405  -0.13467  -0.12213  -0.10489  -0.09471
 Alpha virt. eigenvalues --   -0.08627  -0.07299  -0.06437  -0.06417  -0.05663
 Alpha virt. eigenvalues --   -0.05235  -0.04704  -0.04467  -0.03848  -0.03627

 Mulliken charges:
               1
     1  C   -0.022320
     2  C   -0.017650
     3  C   -0.018022
     4  C   -0.040854
     5  C    0.053586
     6  C   -0.029115
     7  C   -0.028028
     8  C   -0.027926
     9  C    0.039717
    10  C    0.065475
    11  C    0.057866
    12  C    0.059014
    13  C   -0.025510
    14  C   -0.035772
    15  C   -0.017272
    16  C   -0.038213
    17  C   -0.004494
    18  C    0.054203
    19  C   -0.018151
    20  C    0.045936
    21  C   -0.025391
    22  C   -0.026383
    23  C   -0.002665
    24  C   -0.013200
    25  C   -0.014015
    26  C   -0.016638
    27  C   -0.018849
    28  C   -0.022032
    29  C    0.046189
    30  C   -0.024036
    31  C   -0.031994
    32  C   -0.005081
    33  C   -0.017097
    34  C   -0.046105
    35  C    0.047334
    36  C    0.065781
    37  C    0.026240
    38  C    0.100315
    39  C    0.048056
    40  C    0.017024
    41  C    0.053122
    42  C    0.125602
    43  C   -0.018328
    44  C    0.060961
    45  C    0.089631
    46  C    0.000598
    47  C   -0.023886
    48  C   -0.035410
    49  C   -0.020183
    50  C   -0.023996
    51  C    0.051215
    52  C    0.040311
    53  C   -0.021067
    54  C   -0.025257
    55  C   -0.010159
    56  C   -0.013685
    57  C    0.058308
    58  C   -0.011434
    59  C    0.057221
    60  C   -0.023589
    61  C   -0.026163
    62  C   -0.020796
    63  C   -0.028165
    64  C    0.053036
    65  C   -0.028619
    66  C    0.045609
    67  C    0.055388
    68  C    0.041586
    69  C   -0.020177
    70  C   -0.022171
    71  C   -0.017004
    72  C    0.009989
    73  C   -0.022156
    74  C    0.012530
    75  C    0.030803
    76  C    0.071825
    77  C   -0.001439
    78  C   -0.354216
    79  C    0.007548
    80  C   -0.358858
    81  C    0.098900
    82  C    0.094398
    83  C   -0.018232
    84  C   -0.012919
    85  Cl  -0.001801
    86  Cl  -0.038794
 Sum of Mulliken charges =  -0.00000

 Dipole moment (field-independent basis, Debye):
    X=             -3.7130    Y=              0.1510    Z=             -2.5879  Tot=              4.5284
 Quadrupole moment (field-independent basis, Debye-Ang):
   XX=           -502.0678   YY=           -478.3506   ZZ=           -475.3044
   XY=              0.1036   XZ=             -2.4611   YZ=              2.2683

 Normal termination of Gaussian 16 at Wed Jun 29 06:54:56 2022.
