 Gaussian 16, Revision A.03,
 Gaussian 16:  ES64L-G16RevA.03 25-Dec-2016

 ------------------------------------------------
 #P opt b3lyp/6-31G(d, p) empiricaldispersion=GD3
 ------------------------------------------------

 -----
 force
 -----
 Symbolic Z-matrix:
 Charge =  0 Multiplicity = 1

 SCF Done:  E(RB3LYP) =  -4121.39051317     A.U. after   22 cycles
 SCF Done:  E(RB3LYP) =  -4121.40363013     A.U. after   17 cycles
 SCF Done:  E(RB3LYP) =  -4121.40405854     A.U. after   12 cycles
 SCF Done:  E(RB3LYP) =  -4121.40416098     A.U. after   12 cycles
 SCF Done:  E(RB3LYP) =  -4121.40417193     A.U. after   10 cycles
 Optimization completed.
    -- Stationary point found.

                         Input orientation:
 ---------------------------------------------------------------------
 Center     Atomic      Atomic             Coordinates (Angstroms)
 Number     Number       Type             X           Y           Z
 ---------------------------------------------------------------------
      1          6           0       -2.210476    2.900031    2.466685
      2          6           0        1.408622    0.559070    3.831094
      3          6           0        0.347907   -0.865505   -3.945493
      4          6           0        3.468795   -1.947425   -0.605202
      5          6           0       -2.850938    1.652231    2.654263
      6          6           0        1.169592    1.942587    3.522824
      7          6           0       -0.211294   -2.106755   -3.508946
      8          6           0        3.221472   -0.818738   -1.600758
      9          6           0       -2.157580    0.617673    3.432612
     10          6           0        1.904404    2.621353    2.522974
     11          6           0        3.401152    0.512422   -1.347181
     12          6           0        0.420788   -2.923848   -2.538341
     13          6           0       -0.894921    0.930780    3.965748
     14          6           0        1.726271   -2.516988   -2.156908
     15          6           0       -0.242577    2.179343    3.689793
     16          6           0        2.284487   -1.275150   -2.587577
     17          6           0       -0.884698    3.140314    2.935427
     18          6           0        1.571694   -0.374872   -3.413061
     19          6           0       -0.148448    3.898100    1.939341
     20          6           0        1.768108    1.052456   -3.205925
     21          6           0       -1.052531    4.210399    0.874160
     22          6           0        0.710062    1.915430   -3.601361
     23          6           0       -2.339631    3.643445    1.221230
     24          6           0       -0.577338    1.383421   -4.013926
     25          6           0       -3.193994    3.210685    0.239615
     26          6           0       -0.752104    0.039069   -4.195440
     27          6           0       -3.978513    2.025127    0.453279
     28          6           0       -1.993024   -0.602508   -3.811608
     29          6           0       -3.825279    1.253360    1.641310
     30          6           0       -1.651333   -1.959218   -3.510629
     31          6           0       -4.171829   -0.103008    1.538214
     32          6           0       -2.412304   -2.686192   -2.628152
     33          6           0       -3.549495   -1.114354    2.379800
     34          6           0       -1.789751   -3.629394   -1.716793
     35          6           0       -2.466801   -0.804667    3.231591
     36          6           0       -0.374658   -3.688276   -1.580712
     37          6           0       -1.435009   -1.824429    3.431046
     38          6           0        0.185342   -3.975908   -0.263528
     39          6           0       -0.082838   -1.424593    3.824326
     40          6           0        2.253496   -1.549386    2.987988
     41          6           0        2.768879   -2.206640    1.791274
     42          6           0        1.556131   -3.538680    0.066110
     43          6           0        0.147010   -0.069413    4.115159
     44          6           0        2.448916   -0.163934    3.188314
     45          6           0        3.477036   -1.449716    0.813299
     46          6           0        2.297875   -2.880291   -0.904186
     47          6           0        3.245799    0.538015    2.237698
     48          6           0        3.759212   -0.129023    1.063098
     49          6           0        2.998700    1.900270    1.935148
     50          6           0        4.037711    0.901547   -0.020719
     51          6           0        1.224940    3.629761    1.703726
     52          6           0        2.673678    1.501163   -2.153703
     53          6           0        1.673151    3.836878    0.368793
     54          6           0        2.458370    2.780100   -1.596006
     55          6           0        2.754486    3.046635   -0.184699
     56          6           0        3.409117    2.138739    0.582281
     57          6           0       -0.627017    4.262278   -0.480792
     58          6           0        0.433369    3.121375   -2.902657
     59          6           0       -1.544380    3.792355   -1.534821
     60          6           0       -1.006538    3.255429   -2.730446
     61          6           0       -2.816827    3.285474   -1.155102
     62          6           0       -1.631947    2.167271   -3.416334
     63          6           0       -3.420883    2.170633   -1.811382
     64          6           0       -2.810618    1.533361   -2.914594
     65          6           0       -4.156445    1.402771   -0.819986
     66          6           0       -2.994113    0.087991   -3.088017
     67          6           0       -4.341787    0.011777   -0.947308
     68          6           0       -3.787132   -0.675922   -2.117255
     69          6           0       -4.506895   -0.700763    0.280019
     70          6           0       -3.542061   -2.066466   -1.988556
     71          6           0       -4.210409   -2.104062    0.372385
     72          6           0       -3.737345   -2.772436   -0.738593
     73          6           0       -3.642889   -2.362704    1.683418
     74          6           0       -2.663845   -3.747792   -0.592972
     75          6           0       -2.639078   -3.305558    1.833799
     76          6           0       -2.127135   -4.010947    0.658570
     77          6           0       -1.560081   -3.053394    2.727180
     78          6           0       -0.719390   -4.175012    0.809667
     79          6           0        1.045246   -2.185790    3.373307
     80          6           0        1.899240   -3.261470    1.449433
     81          6           0       -0.393217   -3.701620    2.151258
     82          6           0        0.868930   -3.287197    2.461480
     83          6           0        0.775306    4.150606   -0.691872
     84          6           0        1.297675    3.544439   -1.907599
     85         17           0        5.874346    1.158625   -0.246463
     86         17           0        5.078982   -2.819608   -0.995747
 ---------------------------------------------------------------------

 The electronic state is 1-A.
 Alpha  occ. eigenvalues -- -101.54226-101.54186 -10.29530 -10.29425 -10.25191
 Alpha  occ. eigenvalues --  -10.25068 -10.25045 -10.25025 -10.24980 -10.24930
 Alpha  occ. eigenvalues --  -10.24916 -10.24884 -10.24808 -10.24785 -10.24739
 Alpha  occ. eigenvalues --  -10.24690 -10.24561 -10.24540 -10.24507 -10.24362
 Alpha  occ. eigenvalues --  -10.24286 -10.24281 -10.24255 -10.24229 -10.24205
 Alpha  occ. eigenvalues --  -10.24192 -10.24175 -10.24141 -10.24100 -10.24061
 Alpha  occ. eigenvalues --  -10.24001 -10.23961 -10.23913 -10.23894 -10.23875
 Alpha  occ. eigenvalues --  -10.23864 -10.23838 -10.23830 -10.23790 -10.23694
 Alpha  occ. eigenvalues --  -10.23683 -10.23671 -10.23631 -10.23618 -10.23597
 Alpha  occ. eigenvalues --  -10.23566 -10.23545 -10.23494 -10.23464 -10.23454
 Alpha  occ. eigenvalues --  -10.23423 -10.23391 -10.23345 -10.23338 -10.23323
 Alpha  occ. eigenvalues --  -10.23320 -10.23310 -10.23305 -10.23295 -10.23274
 Alpha  occ. eigenvalues --  -10.23240 -10.23230 -10.23198 -10.23177 -10.23172
 Alpha  occ. eigenvalues --  -10.23168 -10.23133 -10.23053 -10.23042 -10.23031
 Alpha  occ. eigenvalues --  -10.22995 -10.22945 -10.22930 -10.22925 -10.22889
 Alpha  occ. eigenvalues --  -10.22849 -10.22847 -10.22836 -10.22756 -10.22715
 Alpha  occ. eigenvalues --  -10.22670 -10.22601 -10.22537 -10.22456 -10.22299
 Alpha  occ. eigenvalues --  -10.22249  -9.45764  -9.45712  -7.22185  -7.22136
 Alpha  occ. eigenvalues --   -7.21178  -7.21166  -7.21123  -7.21119  -0.97207
 Alpha  occ. eigenvalues --   -0.96186  -0.95798  -0.95693  -0.93875  -0.93583
 Alpha  occ. eigenvalues --   -0.93485  -0.92998  -0.92502  -0.90565  -0.90211
 Alpha  occ. eigenvalues --   -0.89625  -0.89193  -0.88632  -0.88294  -0.88104
 Alpha  occ. eigenvalues --   -0.86174  -0.85395  -0.84601  -0.84223  -0.83633
 Alpha  occ. eigenvalues --   -0.83598  -0.83499  -0.83228  -0.83146  -0.81854
 Alpha  occ. eigenvalues --   -0.80922  -0.79124  -0.79002  -0.78555  -0.78383
 Alpha  occ. eigenvalues --   -0.78212  -0.78029  -0.77757  -0.77190  -0.77012
 Alpha  occ. eigenvalues --   -0.76331  -0.75045  -0.73178  -0.73034  -0.72720
 Alpha  occ. eigenvalues --   -0.72355  -0.71693  -0.71424  -0.70892  -0.70037
 Alpha  occ. eigenvalues --   -0.69690  -0.69326  -0.68485  -0.67440  -0.66533
 Alpha  occ. eigenvalues --   -0.65411  -0.65065  -0.64721  -0.64414  -0.63972
 Alpha  occ. eigenvalues --   -0.63938  -0.63212  -0.62876  -0.62266  -0.61656
 Alpha  occ. eigenvalues --   -0.61255  -0.60624  -0.59266  -0.58862  -0.58173
 Alpha  occ. eigenvalues --   -0.57793  -0.57262  -0.57065  -0.56439  -0.55711
 Alpha  occ. eigenvalues --   -0.55016  -0.54711  -0.54163  -0.53376  -0.53062
 Alpha  occ. eigenvalues --   -0.52726  -0.52361  -0.52115  -0.51968  -0.51576
 Alpha  occ. eigenvalues --   -0.51118  -0.50813  -0.49226  -0.49075  -0.48876
 Alpha  occ. eigenvalues --   -0.48427  -0.48338  -0.47997  -0.47916  -0.47688
 Alpha  occ. eigenvalues --   -0.47667  -0.47253  -0.47073  -0.46859  -0.46704
 Alpha  occ. eigenvalues --   -0.46427  -0.46202  -0.46022  -0.45721  -0.45289
 Alpha  occ. eigenvalues --   -0.45033  -0.44821  -0.44686  -0.44374  -0.44216
 Alpha  occ. eigenvalues --   -0.43985  -0.43815  -0.43704  -0.43595  -0.43151
 Alpha  occ. eigenvalues --   -0.43067  -0.42942  -0.42695  -0.42560  -0.42233
 Alpha  occ. eigenvalues --   -0.41931  -0.41621  -0.41269  -0.41082  -0.40985
 Alpha  occ. eigenvalues --   -0.40742  -0.40353  -0.40231  -0.40029  -0.39571
 Alpha  occ. eigenvalues --   -0.39517  -0.39343  -0.39160  -0.38964  -0.38710
 Alpha  occ. eigenvalues --   -0.38576  -0.38478  -0.38419  -0.37512  -0.36688
 Alpha  occ. eigenvalues --   -0.36113  -0.35819  -0.35683  -0.35544  -0.35347
 Alpha  occ. eigenvalues --   -0.35190  -0.34914  -0.34810  -0.34625  -0.34414
 Alpha  occ. eigenvalues --   -0.34045  -0.33708  -0.33142  -0.33089  -0.32980
 Alpha  occ. eigenvalues --   -0.32853  -0.32593  -0.31499  -0.30982  -0.30644
 Alpha  occ. eigenvalues --   -0.30267  -0.29957  -0.29789  -0.27593  -0.27484
 Alpha  occ. eigenvalues --   -0.27408  -0.27277  -0.27198  -0.26931  -0.26850
 Alpha  occ. eigenvalues --   -0.26045  -0.25632  -0.24484  -0.23299  -0.23017
 Alpha  occ. eigenvalues --   -0.22488  -0.22044  -0.21397  -0.19371
 Alpha virt. eigenvalues --   -0.15310  -0.13188  -0.12122  -0.11100  -0.09410
 Alpha virt. eigenvalues --   -0.08985  -0.06774  -0.06568  -0.05886  -0.05794
 Alpha virt. eigenvalues --   -0.05173  -0.04952  -0.04379  -0.04250  -0.03522

 Mulliken charges:
               1
     1  C   -0.027958
     2  C   -0.023665
     3  C   -0.022695
     4  C   -0.365606
     5  C    0.050881
     6  C   -0.020084
     7  C   -0.017447
     8  C    0.079126
     9  C    0.041970
    10  C    0.052021
    11  C    0.120268
    12  C    0.044216
    13  C   -0.027866
    14  C    0.014912
    15  C   -0.015969
    16  C    0.006032
    17  C   -0.009413
    18  C    0.047116
    19  C   -0.021249
    20  C    0.042795
    21  C   -0.021900
    22  C   -0.023681
    23  C   -0.002803
    24  C   -0.011314
    25  C   -0.017224
    26  C   -0.012817
    27  C   -0.021365
    28  C   -0.022579
    29  C    0.050227
    30  C   -0.015855
    31  C   -0.032463
    32  C   -0.008734
    33  C   -0.024049
    34  C   -0.020388
    35  C    0.041635
    36  C    0.044147
    37  C    0.040633
    38  C    0.040658
    39  C    0.056759
    40  C   -0.030893
    41  C    0.005932
    42  C    0.069412
    43  C   -0.031173
    44  C    0.063269
    45  C    0.150877
    46  C    0.042522
    47  C    0.005516
    48  C    0.075192
    49  C    0.008787
    50  C   -0.358960
    51  C    0.054948
    52  C    0.071140
    53  C   -0.019195
    54  C   -0.042425
    55  C    0.003764
    56  C    0.075356
    57  C    0.055211
    58  C   -0.015662
    59  C    0.058262
    60  C   -0.023348
    61  C   -0.023695
    62  C   -0.019775
    63  C   -0.029770
    64  C    0.050835
    65  C   -0.030394
    66  C    0.046931
    67  C    0.051360
    68  C    0.045294
    69  C   -0.020623
    70  C   -0.025033
    71  C   -0.009166
    72  C    0.003568
    73  C   -0.011442
    74  C   -0.010004
    75  C    0.000291
    76  C   -0.001250
    77  C   -0.023477
    78  C   -0.024207
    79  C   -0.024477
    80  C   -0.048280
    81  C    0.004616
    82  C   -0.020705
    83  C   -0.020951
    84  C   -0.006713
    85  Cl  -0.028324
    86  Cl  -0.029413
 Sum of Mulliken charges =  -0.00000

 Dipole moment (field-independent basis, Debye):
    X=             -4.2175    Y=              0.4547    Z=              0.4518  Tot=              4.2659
 Quadrupole moment (field-independent basis, Debye-Ang):
   XX=           -502.1639   YY=           -477.8114   ZZ=           -476.0385
   XY=              6.3864   XZ=              2.0722   YZ=              0.7975

 Normal termination of Gaussian 16 at Wed Jun 29 11:13:04 2022.
