 Gaussian 16, Revision A.03,
 Gaussian 16:  ES64L-G16RevA.03 25-Dec-2016

 ------------------------------------------------
 #P opt b3lyp/6-31G(d, p) empiricaldispersion=GD3
 ------------------------------------------------

 -----
 force
 -----
 Symbolic Z-matrix:
 Charge =  0 Multiplicity = 1

 SCF Done:  E(RB3LYP) =  -5041.79465788     A.U. after   22 cycles
 SCF Done:  E(RB3LYP) =  -5041.80865566     A.U. after   16 cycles
 SCF Done:  E(RB3LYP) =  -5041.80907087     A.U. after   12 cycles
 SCF Done:  E(RB3LYP) =  -5041.80916756     A.U. after   11 cycles
 SCF Done:  E(RB3LYP) =  -5041.80917724     A.U. after   10 cycles
 Optimization completed.
    -- Stationary point found.

                         Input orientation:
 ---------------------------------------------------------------------
 Center     Atomic      Atomic             Coordinates (Angstroms)
 Number     Number       Type             X           Y           Z
 ---------------------------------------------------------------------
      1          6           0       -1.924317    1.216586   -2.950225
      2          6           0       -0.937365   -3.170006   -2.382865
      3          6           0        1.864958    0.919081    3.868980
      4          6           0        1.441461   -3.351634    2.328205
      5          6           0       -0.591103    1.239573   -3.424260
      6          6           0       -2.146944   -2.353040   -2.226538
      7          6           0        3.158411    0.769985    3.244539
      8          6           0        0.671880   -2.518009    3.190741
      9          6           0        0.076456   -0.029287   -3.753679
     10          6           0       -2.866833   -2.257278   -1.038947
     11          6           0       -0.736987   -2.348890    3.035136
     12          6           0        3.596896   -0.475782    2.717557
     13          6           0       -0.658073   -1.211502   -3.606572
     14          6           0        2.797805   -1.595747    3.039704
     15          6           0       -1.986652   -1.210047   -3.060313
     16          6           0        1.510344   -1.447738    3.657441
     17          6           0       -2.601583   -0.022960   -2.716581
     18          6           0        0.973207   -0.183585    3.985633
     19          6           0       -3.406198    0.067913   -1.549553
     20          6           0       -0.479413    0.024352    3.862196
     21          6           0       -3.528019    1.542515   -1.156438
     22          6           0       -0.923123    1.344015    3.669336
     23          6           0       -2.439628    2.172385   -2.016144
     24          6           0        0.001407    2.435900    3.425776
     25          6           0       -1.642584    3.185703   -1.578446
     26          6           0        1.371697    2.224986    3.536958
     27          6           0       -0.316736    3.288981   -2.074766
     28          6           0        2.271774    2.852697    2.619012
     29          6           0        0.204483    2.374309   -3.019767
     30          6           0        3.422821    1.988921    2.539161
     31          6           0        1.612899    2.277849   -3.086254
     32          6           0        4.201816    1.976239    1.404314
     33          6           0        2.267983    1.071310   -3.521928
     34          6           0        4.776924    0.731594    0.922743
     35          6           0        1.543320   -0.130109   -3.723507
     36          6           0        4.408938   -0.513295    1.491533
     37          6           0        2.192640   -1.395842   -3.395264
     38          6           0        4.333802   -1.684678    0.611052
     39          6           0        1.376316   -2.563387   -3.071241
     40          6           0        0.938983   -4.159516   -1.212494
     41          6           0        1.586587   -4.217711    0.069893
     42          6           0        3.467854   -2.816477    0.977065
     43          6           0       -0.038082   -2.463869   -3.217311
     44          6           0       -0.468738   -3.984621   -1.314597
     45          6           0        0.832833   -4.049170    1.247761
     46          6           0        2.745300   -2.752148    2.192146
     47          6           0       -1.233799   -3.978614   -0.118090
     48          6           0       -0.590402   -3.959594    1.126725
     49          6           0       -2.619319   -3.339820    0.002624
     50          6           0       -1.365213   -3.150534    2.050250
     51          6           0       -3.505541   -1.016786   -0.689030
     52          6           0       -1.332896   -1.072327    3.381509
     53          6           0       -3.934539   -0.728564    0.739421
     54          6           0       -2.556726   -0.753283    2.743152
     55          6           0       -3.152576   -1.574408    1.734578
     56          6           0       -2.562007   -2.752947    1.396742
     57          6           0       -3.244020    1.741696    0.319645
     58          6           0       -2.102389    1.632988    2.898217
     59          6           0       -2.384688    2.802802    0.776849
     60          6           0       -1.847478    2.756342    2.055285
     61          6           0       -1.719514    3.765655   -0.185245
     62          6           0       -0.508760    3.264566    2.398970
     63          6           0       -0.233434    3.998464    0.129266
     64          6           0        0.353236    3.804106    1.398970
     65          6           0        0.523883    3.850034   -1.038071
     66          6           0        1.796107    3.561197    1.482369
     67          6           0        1.932251    3.624453   -1.016842
     68          6           0        2.600394    3.514594    0.265045
     69          6           0        2.467147    2.971663   -2.162698
     70          6           0        3.840772    2.799917    0.288877
     71          6           0        3.701701    2.244684   -2.095670
     72          6           0        4.372146    2.159520   -0.888733
     73          6           0        3.590401    1.081688   -2.958092
     74          6           0        4.971433    0.891877   -0.489334
     75          6           0        4.182049   -0.111026   -2.593563
     76          6           0        4.888509   -0.209106   -1.320330
     77          6           0        3.509764   -1.350718   -2.842389
     78          6           0        4.621051   -1.503897   -0.766604
     79          6           0        1.838045   -3.512819   -2.127257
     80          6           0        2.905835   -3.634196   -0.049527
     81          6           0        3.894149   -2.244848   -1.782764
     82          6           0        3.076768   -3.292904   -1.423550
     83          6           0       -3.527539    0.681848    1.167823
     84          6           0       -2.903163    0.607671    2.443956
     85         17           0       -5.197917    2.217030   -1.586478
     86         17           0       -5.762580   -0.982946    0.915268
     87         17           0       -3.945491   -4.632555   -0.140103
     88         17           0       -2.634853    5.386255   -0.173984
 ---------------------------------------------------------------------

 The electronic state is 1-A.
 Alpha  occ. eigenvalues -- -101.55323-101.55253-101.55127-101.54915 -10.30583
 Alpha  occ. eigenvalues --  -10.30474 -10.30433 -10.30322 -10.25836 -10.25793
 Alpha  occ. eigenvalues --  -10.25725 -10.25599 -10.25589 -10.25578 -10.25535
 Alpha  occ. eigenvalues --  -10.25446 -10.25263 -10.25250 -10.25244 -10.25183
 Alpha  occ. eigenvalues --  -10.25158 -10.25153 -10.25129 -10.25100 -10.25069
 Alpha  occ. eigenvalues --  -10.24973 -10.24968 -10.24965 -10.24952 -10.24949
 Alpha  occ. eigenvalues --  -10.24896 -10.24844 -10.24796 -10.24765 -10.24759
 Alpha  occ. eigenvalues --  -10.24652 -10.24573 -10.24532 -10.24531 -10.24509
 Alpha  occ. eigenvalues --  -10.24476 -10.24433 -10.24431 -10.24301 -10.24297
 Alpha  occ. eigenvalues --  -10.24271 -10.24269 -10.24252 -10.24216 -10.24216
 Alpha  occ. eigenvalues --  -10.24215 -10.24169 -10.24155 -10.24148 -10.24108
 Alpha  occ. eigenvalues --  -10.24104 -10.24018 -10.23980 -10.23946 -10.23883
 Alpha  occ. eigenvalues --  -10.23882 -10.23821 -10.23814 -10.23749 -10.23690
 Alpha  occ. eigenvalues --  -10.23669 -10.23631 -10.23594 -10.23582 -10.23431
 Alpha  occ. eigenvalues --  -10.23187 -10.23160 -10.23158 -10.23148 -10.23093
 Alpha  occ. eigenvalues --  -10.23075 -10.22964 -10.22890 -10.22791 -10.22762
 Alpha  occ. eigenvalues --  -10.22694 -10.22491 -10.22475 -10.22467 -10.22453
 Alpha  occ. eigenvalues --  -10.22391 -10.22285 -10.21925  -9.46850  -9.46784
 Alpha  occ. eigenvalues --   -9.46662  -9.46450  -7.23290  -7.23226  -7.23103
 Alpha  occ. eigenvalues --   -7.22889  -7.22252  -7.22247  -7.22185  -7.22179
 Alpha  occ. eigenvalues --   -7.22062  -7.22056  -7.21851  -7.21846  -0.98055
 Alpha  occ. eigenvalues --   -0.96838  -0.96525  -0.96217  -0.94546  -0.94234
 Alpha  occ. eigenvalues --   -0.94060  -0.93673  -0.93074  -0.91202  -0.90835
 Alpha  occ. eigenvalues --   -0.90707  -0.89922  -0.89348  -0.89159  -0.88430
 Alpha  occ. eigenvalues --   -0.86913  -0.86511  -0.86241  -0.85477  -0.84627
 Alpha  occ. eigenvalues --   -0.84420  -0.84081  -0.83945  -0.83541  -0.83130
 Alpha  occ. eigenvalues --   -0.82153  -0.82055  -0.81791  -0.79752  -0.79196
 Alpha  occ. eigenvalues --   -0.78966  -0.78789  -0.78490  -0.78265  -0.78117
 Alpha  occ. eigenvalues --   -0.77174  -0.77138  -0.76843  -0.75642  -0.73711
 Alpha  occ. eigenvalues --   -0.73662  -0.72919  -0.72848  -0.71820  -0.71600
 Alpha  occ. eigenvalues --   -0.71355  -0.70714  -0.70287  -0.69696  -0.68995
 Alpha  occ. eigenvalues --   -0.67992  -0.66997  -0.66041  -0.65773  -0.65213
 Alpha  occ. eigenvalues --   -0.65078  -0.64467  -0.64095  -0.63943  -0.63312
 Alpha  occ. eigenvalues --   -0.62844  -0.62321  -0.61794  -0.61059  -0.60098
 Alpha  occ. eigenvalues --   -0.59436  -0.58901  -0.58292  -0.57979  -0.57541
 Alpha  occ. eigenvalues --   -0.57274  -0.56333  -0.55451  -0.55352  -0.54687
 Alpha  occ. eigenvalues --   -0.53922  -0.53817  -0.53371  -0.53113  -0.52993
 Alpha  occ. eigenvalues --   -0.52621  -0.52160  -0.51817  -0.51278  -0.50269
 Alpha  occ. eigenvalues --   -0.49816  -0.49656  -0.49440  -0.49398  -0.48779
 Alpha  occ. eigenvalues --   -0.48673  -0.48371  -0.48135  -0.47974  -0.47657
 Alpha  occ. eigenvalues --   -0.47500  -0.47224  -0.46894  -0.46756  -0.46671
 Alpha  occ. eigenvalues --   -0.46268  -0.46149  -0.45922  -0.45838  -0.45677
 Alpha  occ. eigenvalues --   -0.45565  -0.45051  -0.44894  -0.44574  -0.44470
 Alpha  occ. eigenvalues --   -0.44242  -0.43975  -0.43834  -0.43775  -0.43369
 Alpha  occ. eigenvalues --   -0.43188  -0.43044  -0.42647  -0.42480  -0.42341
 Alpha  occ. eigenvalues --   -0.41860  -0.41820  -0.41602  -0.41275  -0.41120
 Alpha  occ. eigenvalues --   -0.40962  -0.40807  -0.40469  -0.40273  -0.39892
 Alpha  occ. eigenvalues --   -0.39824  -0.39420  -0.39286  -0.38895  -0.38604
 Alpha  occ. eigenvalues --   -0.38519  -0.38034  -0.37548  -0.37504  -0.36897
 Alpha  occ. eigenvalues --   -0.36660  -0.36556  -0.36359  -0.35758  -0.35548
 Alpha  occ. eigenvalues --   -0.35372  -0.35243  -0.35133  -0.34799  -0.34600
 Alpha  occ. eigenvalues --   -0.34179  -0.33692  -0.33190  -0.33162  -0.32779
 Alpha  occ. eigenvalues --   -0.31990  -0.31790  -0.31610  -0.31410  -0.31285
 Alpha  occ. eigenvalues --   -0.31172  -0.31081  -0.30929  -0.30742  -0.30523
 Alpha  occ. eigenvalues --   -0.30343  -0.28039  -0.27826  -0.27696  -0.27506
 Alpha  occ. eigenvalues --   -0.27286  -0.26949  -0.25950  -0.25736  -0.25200
 Alpha  occ. eigenvalues --   -0.24497  -0.23980  -0.23227  -0.22890  -0.21090
 Alpha  occ. eigenvalues --   -0.19766
 Alpha virt. eigenvalues --   -0.16021  -0.13154  -0.12187  -0.11337  -0.10010
 Alpha virt. eigenvalues --   -0.08987  -0.08338  -0.07658  -0.06786  -0.06295
 Alpha virt. eigenvalues --   -0.05968  -0.05561  -0.04917  -0.04562  -0.04091

 Mulliken charges:
               1
     1  C    0.003109
     2  C   -0.035299
     3  C   -0.029862
     4  C   -0.029263
     5  C    0.041411
     6  C    0.007808
     7  C   -0.026025
     8  C   -0.023096
     9  C    0.052132
    10  C    0.129201
    11  C    0.050401
    12  C    0.060318
    13  C   -0.029789
    14  C   -0.041014
    15  C   -0.024335
    16  C   -0.038656
    17  C    0.024820
    18  C    0.062272
    19  C    0.076995
    20  C    0.054703
    21  C   -0.377857
    22  C   -0.025879
    23  C    0.094048
    24  C   -0.004410
    25  C    0.089611
    26  C   -0.018817
    27  C    0.006840
    28  C   -0.019315
    29  C    0.042851
    30  C   -0.019138
    31  C   -0.025743
    32  C   -0.007577
    33  C   -0.025619
    34  C   -0.024645
    35  C    0.041164
    36  C    0.046886
    37  C    0.041255
    38  C    0.038987
    39  C    0.051902
    40  C   -0.033215
    41  C   -0.030503
    42  C    0.064868
    43  C   -0.023523
    44  C    0.083457
    45  C    0.064932
    46  C   -0.036713
    47  C    0.047137
    48  C    0.018125
    49  C   -0.360722
    50  C    0.001942
    51  C    0.151081
    52  C    0.033350
    53  C   -0.374777
    54  C    0.007848
    55  C    0.091379
    56  C    0.089731
    57  C    0.151690
    58  C   -0.020963
    59  C    0.126873
    60  C    0.010839
    61  C   -0.363445
    62  C   -0.033924
    63  C    0.046363
    64  C    0.064679
    65  C    0.013781
    66  C    0.037678
    67  C    0.043602
    68  C    0.042349
    69  C   -0.016719
    70  C   -0.020984
    71  C   -0.010871
    72  C    0.008130
    73  C   -0.011835
    74  C   -0.005472
    75  C    0.003804
    76  C   -0.002539
    77  C   -0.025594
    78  C   -0.023667
    79  C   -0.018998
    80  C   -0.022642
    81  C   -0.001733
    82  C   -0.022609
    83  C    0.075418
    84  C    0.022605
    85  Cl  -0.002511
    86  Cl  -0.006297
    87  Cl  -0.009275
    88  Cl  -0.012505
 Sum of Mulliken charges =  -0.00000

 Dipole moment (field-independent basis, Debye):
    X=              4.6777    Y=              0.1995    Z=             -0.6961  Tot=              4.7334
 Quadrupole moment (field-independent basis, Debye-Ang):
   XX=           -528.7740   YY=           -519.5382   ZZ=           -498.9122
   XY=              3.1333   XZ=             -4.9165   YZ=             -0.5281

 Normal termination of Gaussian 16 at Wed Jun 29 13:35:51 2022.
