 Gaussian 16, Revision A.03,
 Gaussian 16:  ES64L-G16RevA.03 25-Dec-2016

 ------------------------------------------------
 #P opt b3lyp/6-31G(d, p) empiricaldispersion=GD3
 ------------------------------------------------

 -----
 force
 -----
 Symbolic Z-matrix:
 Charge =  0 Multiplicity = 1

 SCF Done:  E(RB3LYP) =  -5041.80628564     A.U. after   21 cycles
 SCF Done:  E(RB3LYP) =  -5041.82060838     A.U. after   15 cycles
 SCF Done:  E(RB3LYP) =  -5041.82113431     A.U. after   13 cycles
 SCF Done:  E(RB3LYP) =  -5041.82125602     A.U. after   11 cycles
 SCF Done:  E(RB3LYP) =  -5041.82126749     A.U. after    9 cycles
 Optimization completed.
    -- Stationary point found.

                         Input orientation:
 ---------------------------------------------------------------------
 Center     Atomic      Atomic             Coordinates (Angstroms)
 Number     Number       Type             X           Y           Z
 ---------------------------------------------------------------------
      1          6           0        0.907201   -2.379908   -3.366251
      2          6           0        4.571292   -0.901099   -1.163957
      3          6           0       -1.824765    0.817664    3.208927
      4          6           0        2.720162    1.113989    3.419932
      5          6           0        0.837735   -1.023454   -3.775129
      6          6           0        3.984805   -2.192215   -1.362488
      7          6           0       -1.666313    2.153906    2.717404
      8          6           0        1.757179    0.170217    3.910873
      9          6           0        2.017776   -0.171727   -3.592830
     10          6           0        3.597189   -3.013252   -0.277550
     11          6           0        1.876699   -1.211636    3.665543
     12          6           0       -0.405320    2.806508    2.733023
     13          6           0        3.168424   -0.759054   -3.038075
     14          6           0        0.625539    2.141132    3.442230
     15          6           0        3.178528   -2.115367   -2.566257
     16          6           0        0.465692    0.822916    3.940983
     17          6           0        2.065511   -2.906782   -2.713544
     18          6           0       -0.731504    0.090236    3.747605
     19          6           0        1.656328   -3.805709   -1.642722
     20          6           0       -0.654117   -1.341661    3.527131
     21          6           0        0.242538   -3.900606   -1.687939
     22          6           0       -1.733493   -1.923922    2.813930
     23          6           0       -0.228403   -3.070796   -2.801299
     24          6           0       -2.813438   -1.159232    2.261588
     25          6           0       -1.450212   -2.465606   -2.753560
     26          6           0       -2.861483    0.180820    2.457008
     27          6           0       -1.575378   -1.135752   -3.233255
     28          6           0       -3.483077    1.142201    1.464224
     29          6           0       -0.479124   -0.420221   -3.772781
     30          6           0       -2.611606    2.363927    1.666390
     31          6           0       -0.592022    0.992683   -3.747563
     32          6           0       -2.311782    3.221018    0.662548
     33          6           0        0.595328    1.837655   -3.677277
     34          6           0       -1.058445    3.923853    0.662114
     35          6           0        1.876179    1.285635   -3.465814
     36          6           0       -0.054965    3.701305    1.644724
     37          6           0        2.832898    2.055383   -2.660731
     38          6           0        1.349660    3.862751    1.263686
     39          6           0        3.915538    1.361371   -1.966152
     40          6           0        4.780456    0.989834    0.344054
     41          6           0        4.276105    1.543538    1.606358
     42          6           0        2.393719    3.131845    2.005371
     43          6           0        4.075284   -0.015040   -2.189723
     44          6           0        4.853596   -0.413298    0.144303
     45          6           0        3.833772    0.681843    2.648839
     46          6           0        2.017528    2.324885    3.093651
     47          6           0        4.547493   -1.272550    1.236988
     48          6           0        4.016459   -0.717188    2.489745
     49          6           0        3.962341   -2.542491    1.029131
     50          6           0        3.093529   -1.644169    3.035293
     51          6           0        2.388739   -3.839716   -0.415068
     52          6           0        0.652114   -2.004525    3.483518
     53          6           0        1.621524   -4.126535    0.739760
     54          6           0        0.760960   -3.205067    2.747553
     55          6           0        1.975287   -3.555770    2.029872
     56          6           0        3.106871   -2.802248    2.171319
     57          6           0       -0.540443   -4.006677   -0.504435
     58          6           0       -1.541670   -3.064805    1.974298
     59          6           0       -1.847589   -3.353087   -0.430279
     60          6           0       -2.332387   -2.934126    0.784389
     61          6           0       -2.471199   -2.741038   -1.666382
     62          6           0       -3.348874   -1.806118    0.999705
     63          6           0       -2.994264   -1.326896   -1.397181
     64          6           0       -3.341315   -0.822009   -0.162181
     65          6           0       -2.560322   -0.461066   -2.427289
     66          6           0       -3.352721    0.604272    0.032859
     67          6           0       -2.570588    0.938898   -2.270098
     68          6           0       -3.013152    1.476819   -1.010627
     69          6           0       -1.662959    1.659763   -3.109717
     70          6           0       -2.802220    2.975405   -0.751618
     71          6           0       -1.201890    2.980594   -2.723421
     72          6           0       -1.654977    3.556463   -1.566511
     73          6           0        0.192155    3.084155   -3.101784
     74          6           0       -0.724105    4.221857   -0.697360
     75          6           0        1.082510    3.788373   -2.305709
     76          6           0        0.610236    4.369856   -1.058251
     77          6           0        2.404333    3.294652   -2.114489
     78          6           0        1.633664    4.230692   -0.072354
     79          6           0        4.390009    1.857569   -0.703271
     80          6           0        3.606906    2.760738    1.330665
     81          6           0        2.795679    3.687047   -0.768557
     82          6           0        3.749565    2.994890   -0.087137
     83          6           0        0.195233   -4.202924    0.692967
     84          6           0       -0.316999   -3.696545    1.945868
     85         17           0       -3.828454   -3.834400   -2.311554
     86         17           0       -5.049005   -2.498301    1.243817
     87         17           0       -5.256930    1.474954    1.850620
     88         17           0       -4.375662    3.888122   -1.127973
 ---------------------------------------------------------------------

 The electronic state is 1-A.
 Alpha  occ. eigenvalues -- -101.54973-101.54911-101.54873-101.54762 -10.30261
 Alpha  occ. eigenvalues --  -10.30222 -10.30178 -10.30045 -10.25799 -10.25592
 Alpha  occ. eigenvalues --  -10.25571 -10.25566 -10.25443 -10.25417 -10.25317
 Alpha  occ. eigenvalues --  -10.25228 -10.25190 -10.25176 -10.25137 -10.25112
 Alpha  occ. eigenvalues --  -10.25096 -10.25063 -10.25028 -10.24964 -10.24950
 Alpha  occ. eigenvalues --  -10.24934 -10.24849 -10.24733 -10.24678 -10.24638
 Alpha  occ. eigenvalues --  -10.24537 -10.24521 -10.24417 -10.24399 -10.24387
 Alpha  occ. eigenvalues --  -10.24368 -10.24337 -10.24335 -10.24293 -10.24260
 Alpha  occ. eigenvalues --  -10.24200 -10.24197 -10.24149 -10.24145 -10.24139
 Alpha  occ. eigenvalues --  -10.24094 -10.24067 -10.24059 -10.24049 -10.24019
 Alpha  occ. eigenvalues --  -10.24018 -10.24010 -10.24007 -10.23970 -10.23964
 Alpha  occ. eigenvalues --  -10.23927 -10.23913 -10.23902 -10.23901 -10.23856
 Alpha  occ. eigenvalues --  -10.23855 -10.23843 -10.23834 -10.23805 -10.23801
 Alpha  occ. eigenvalues --  -10.23784 -10.23661 -10.23591 -10.23591 -10.23542
 Alpha  occ. eigenvalues --  -10.23528 -10.23510 -10.23489 -10.23487 -10.23383
 Alpha  occ. eigenvalues --  -10.23365 -10.23328 -10.23293 -10.23277 -10.23176
 Alpha  occ. eigenvalues --  -10.23095 -10.23023 -10.22967 -10.22945 -10.22910
 Alpha  occ. eigenvalues --  -10.22885 -10.22825 -10.22415  -9.46504  -9.46449
 Alpha  occ. eigenvalues --   -9.46409  -9.46293  -7.22942  -7.22883  -7.22856
 Alpha  occ. eigenvalues --   -7.22737  -7.21909  -7.21901  -7.21854  -7.21845
 Alpha  occ. eigenvalues --   -7.21810  -7.21797  -7.21696  -7.21684  -0.97896
 Alpha  occ. eigenvalues --   -0.96771  -0.96441  -0.96187  -0.94420  -0.94356
 Alpha  occ. eigenvalues --   -0.93911  -0.93489  -0.93127  -0.91260  -0.90989
 Alpha  occ. eigenvalues --   -0.90403  -0.89614  -0.89388  -0.89065  -0.88775
 Alpha  occ. eigenvalues --   -0.86930  -0.86074  -0.85891  -0.85360  -0.84739
 Alpha  occ. eigenvalues --   -0.84284  -0.84128  -0.84042  -0.83683  -0.83140
 Alpha  occ. eigenvalues --   -0.82299  -0.81654  -0.81285  -0.79634  -0.79308
 Alpha  occ. eigenvalues --   -0.78950  -0.78665  -0.78556  -0.78448  -0.78139
 Alpha  occ. eigenvalues --   -0.77655  -0.77029  -0.76630  -0.75275  -0.73597
 Alpha  occ. eigenvalues --   -0.73381  -0.73205  -0.72797  -0.71878  -0.71830
 Alpha  occ. eigenvalues --   -0.71281  -0.70536  -0.70197  -0.69636  -0.68973
 Alpha  occ. eigenvalues --   -0.67968  -0.67105  -0.66065  -0.65648  -0.65252
 Alpha  occ. eigenvalues --   -0.64843  -0.64462  -0.64121  -0.63859  -0.63334
 Alpha  occ. eigenvalues --   -0.62593  -0.62211  -0.61960  -0.60971  -0.60157
 Alpha  occ. eigenvalues --   -0.59392  -0.59046  -0.58043  -0.57917  -0.57658
 Alpha  occ. eigenvalues --   -0.57099  -0.56126  -0.55453  -0.55297  -0.54472
 Alpha  occ. eigenvalues --   -0.53966  -0.53797  -0.53411  -0.52973  -0.52806
 Alpha  occ. eigenvalues --   -0.52653  -0.52211  -0.51854  -0.51227  -0.50107
 Alpha  occ. eigenvalues --   -0.49839  -0.49678  -0.49157  -0.48963  -0.48840
 Alpha  occ. eigenvalues --   -0.48583  -0.48288  -0.48107  -0.48063  -0.47760
 Alpha  occ. eigenvalues --   -0.47411  -0.47294  -0.47095  -0.46908  -0.46473
 Alpha  occ. eigenvalues --   -0.46358  -0.45998  -0.45916  -0.45740  -0.45436
 Alpha  occ. eigenvalues --   -0.45190  -0.45007  -0.44853  -0.44576  -0.44388
 Alpha  occ. eigenvalues --   -0.44296  -0.43982  -0.43953  -0.43637  -0.43513
 Alpha  occ. eigenvalues --   -0.43381  -0.42753  -0.42576  -0.42362  -0.42249
 Alpha  occ. eigenvalues --   -0.41888  -0.41622  -0.41495  -0.41388  -0.40922
 Alpha  occ. eigenvalues --   -0.40811  -0.40717  -0.40477  -0.40287  -0.39808
 Alpha  occ. eigenvalues --   -0.39597  -0.39501  -0.39394  -0.39140  -0.38979
 Alpha  occ. eigenvalues --   -0.38490  -0.37774  -0.37545  -0.37336  -0.36883
 Alpha  occ. eigenvalues --   -0.36786  -0.36293  -0.36248  -0.35772  -0.35620
 Alpha  occ. eigenvalues --   -0.35417  -0.35116  -0.35027  -0.34871  -0.34466
 Alpha  occ. eigenvalues --   -0.33902  -0.33782  -0.33644  -0.33141  -0.32745
 Alpha  occ. eigenvalues --   -0.32185  -0.31954  -0.31465  -0.31258  -0.31212
 Alpha  occ. eigenvalues --   -0.31101  -0.30658  -0.30634  -0.30185  -0.30030
 Alpha  occ. eigenvalues --   -0.29895  -0.27939  -0.27826  -0.27613  -0.27550
 Alpha  occ. eigenvalues --   -0.27455  -0.27181  -0.26531  -0.26063  -0.25203
 Alpha  occ. eigenvalues --   -0.24242  -0.23618  -0.22972  -0.22376  -0.21484
 Alpha  occ. eigenvalues --   -0.20975
 Alpha virt. eigenvalues --   -0.15564  -0.13637  -0.11508  -0.10442  -0.10138
 Alpha virt. eigenvalues --   -0.09238  -0.08147  -0.07729  -0.06688  -0.06450
 Alpha virt. eigenvalues --   -0.05541  -0.05302  -0.05260  -0.04431  -0.04291

 Mulliken charges:
               1
     1  C   -0.024748
     2  C   -0.021158
     3  C    0.004815
     4  C   -0.032296
     5  C    0.050366
     6  C   -0.023051
     7  C    0.002660
     8  C   -0.032670
     9  C    0.040829
    10  C    0.064130
    11  C    0.061910
    12  C    0.047222
    13  C   -0.028182
    14  C   -0.031773
    15  C   -0.012251
    16  C   -0.030700
    17  C   -0.010732
    18  C    0.044154
    19  C   -0.013476
    20  C    0.037885
    21  C   -0.039392
    22  C    0.008803
    23  C    0.004702
    24  C    0.088405
    25  C    0.074912
    26  C    0.084635
    27  C    0.015007
    28  C   -0.374154
    29  C    0.039957
    30  C    0.087450
    31  C   -0.020609
    32  C    0.088277
    33  C   -0.025050
    34  C    0.002542
    35  C    0.044517
    36  C    0.035681
    37  C    0.042551
    38  C    0.046559
    39  C    0.052868
    40  C   -0.025262
    41  C   -0.023178
    42  C    0.063429
    43  C   -0.028620
    44  C    0.066150
    45  C    0.072197
    46  C   -0.035247
    47  C   -0.021546
    48  C   -0.023249
    49  C   -0.023731
    50  C   -0.026030
    51  C    0.052320
    52  C    0.047719
    53  C   -0.021425
    54  C   -0.023025
    55  C   -0.001894
    56  C   -0.015416
    57  C    0.084848
    58  C    0.020333
    59  C    0.121006
    60  C    0.078589
    61  C   -0.365482
    62  C   -0.375956
    63  C    0.079217
    64  C    0.147181
    65  C    0.000770
    66  C    0.128723
    67  C    0.077381
    68  C    0.101814
    69  C   -0.037535
    70  C   -0.354367
    71  C    0.007345
    72  C    0.079619
    73  C   -0.011266
    74  C    0.024301
    75  C   -0.000826
    76  C   -0.011905
    77  C   -0.024872
    78  C   -0.021129
    79  C   -0.019315
    80  C   -0.023676
    81  C    0.000325
    82  C   -0.020865
    83  C   -0.023257
    84  C   -0.019651
    85  Cl  -0.012381
    86  Cl  -0.002793
    87  Cl   0.003163
    88  Cl  -0.013123
 Sum of Mulliken charges =  -0.00000

 Dipole moment (field-independent basis, Debye):
    X=              5.4425    Y=              0.3707    Z=             -0.4748  Tot=              5.4757
 Quadrupole moment (field-independent basis, Debye-Ang):
   XX=           -533.3465   YY=           -508.2091   ZZ=           -502.4722
   XY=             -1.2368   XZ=             -1.6181   YZ=             -3.3431

 Normal termination of Gaussian 16 at Wed Jun 29 05:56:46 2022.
