 Gaussian 16, Revision A.03,
 Gaussian 16:  ES64L-G16RevA.03 25-Dec-2016

 ------------------------------------------------
 #P opt b3lyp/6-31G(d, p) empiricaldispersion=GD3
 ------------------------------------------------

 -----
 force
 -----
 Symbolic Z-matrix:
 Charge =  0 Multiplicity = 1

 SCF Done:  E(RB3LYP) =  -5041.79406595     A.U. after   23 cycles
 SCF Done:  E(RB3LYP) =  -5041.80826083     A.U. after   17 cycles
 SCF Done:  E(RB3LYP) =  -5041.80881811     A.U. after   14 cycles
 SCF Done:  E(RB3LYP) =  -5041.80896380     A.U. after   12 cycles
 SCF Done:  E(RB3LYP) =  -5041.80897595     A.U. after   11 cycles
 Optimization completed.
    -- Stationary point found.

                         Input orientation:
 ---------------------------------------------------------------------
 Center     Atomic      Atomic             Coordinates (Angstroms)
 Number     Number       Type             X           Y           Z
 ---------------------------------------------------------------------
      1          6           0        1.563661   -1.121868   -3.244381
      2          6           0        2.344168    3.047730   -1.292824
      3          6           0       -2.553760   -1.661097    3.384631
      4          6           0       -0.486884    2.405508    3.383510
      5          6           0        0.367244   -0.500438   -3.686697
      6          6           0        3.000579    1.673123   -1.360664
      7          6           0       -3.619543   -0.861724    2.863576
      8          6           0       -0.156324    1.112515    3.912324
      9          6           0        0.231620    0.950382   -3.547644
     10          6           0        3.486415    0.946444   -0.286137
     11          6           0        1.084871    0.499080    3.653887
     12          6           0       -3.539077    0.553884    2.803844
     13          6           0        1.313092    1.671105   -2.988801
     14          6           0       -2.432554    1.128339    3.471533
     15          6           0        2.485337    1.002827   -2.493082
     16          6           0       -1.369231    0.334132    3.992413
     17          6           0        2.595362   -0.373276   -2.599106
     18          6           0       -1.353036   -1.077114    3.870116
     19          6           0        3.193593   -1.123197   -1.553112
     20          6           0       -0.072099   -1.752262    3.651817
     21          6           0        2.735298   -2.576136   -1.680672
     22          6           0       -0.106133   -3.018041    3.015728
     23          6           0        1.597956   -2.441362   -2.686894
     24          6           0       -1.323550   -3.535808    2.430031
     25          6           0        0.450347   -3.168714   -2.590895
     26          6           0       -2.513585   -2.883875    2.608912
     27          6           0       -0.770706   -2.639155   -3.129687
     28          6           0       -3.476095   -2.800516    1.533180
     29          6           0       -0.821453   -1.333396   -3.697650
     30          6           0       -4.224648   -1.606342    1.775750
     31          6           0       -2.080405   -0.709170   -3.697757
     32          6           0       -4.814975   -0.937510    0.734101
     33          6           0       -2.209109    0.734959   -3.658357
     34          6           0       -4.853994    0.516179    0.720416
     35          6           0       -1.079691    1.571671   -3.460724
     36          6           0       -4.142098    1.281816    1.678138
     37          6           0       -1.255106    2.801393   -2.688482
     38          6           0       -3.561518    2.556985    1.251301
     39          6           0       -0.103210    3.419152   -2.021433
     40          6           0        0.647559    4.028399    0.271388
     41          6           0       -0.079862    3.909346    1.527196
     42          6           0       -2.398559    3.113384    1.966337
     43          6           0        1.151936    2.870430   -2.246455
     44          6           0        1.909619    3.389234    0.104739
     45          6           0        0.441777    3.118611    2.580444
     46          6           0       -1.886673    2.410572    3.075533
     47          6           0        2.466729    2.726746    1.173822
     48          6           0        1.731605    2.553437    2.403334
     49          6           0        3.527626    1.636270    1.064717
     50          6           0        2.061921    1.291315    2.963129
     51          6           0        3.579214   -0.493444   -0.385495
     52          6           0        1.147663   -0.953705    3.531898
     53          6           0        3.711640   -1.363526    0.851228
     54          6           0        2.226556   -1.476914    2.776766
     55          6           0        3.177026   -0.650518    2.080473
     56          6           0        3.096750    0.697396    2.171211
     57          6           0        2.263028   -3.139724   -0.354141
     58          6           0        0.952016   -3.450266    2.157015
     59          6           0        1.019323   -3.906667   -0.275224
     60          6           0        0.400688   -4.087455    0.984192
     61          6           0        0.138298   -3.942584   -1.392656
     62          6           0       -1.023697   -4.125247    1.141261
     63          6           0       -1.267859   -3.919850   -1.238736
     64          6           0       -1.898362   -3.943410    0.037992
     65          6           0       -1.839555   -3.136113   -2.327339
     66          6           0       -3.163408   -3.230726    0.218005
     67          6           0       -3.053685   -2.433670   -2.184657
     68          6           0       -3.761890   -2.495278   -0.900392
     69          6           0       -3.208124   -1.290503   -3.027237
     70          6           0       -4.650170   -1.429025   -0.607803
     71          6           0       -4.092524   -0.216710   -2.670297
     72          6           0       -4.795001   -0.284886   -1.483579
     73          6           0       -3.485557    1.034359   -3.090977
     74          6           0       -4.937781    0.904621   -0.655360
     75          6           0       -3.632949    2.176405   -2.316591
     76          6           0       -4.376362    2.105209   -1.059139
     77          6           0       -2.541419    3.071943   -2.151848
     78          6           0       -3.733168    2.944783   -0.100952
     79          6           0       -0.293548    4.133176   -0.775943
     80          6           0       -1.475741    3.954582    1.262814
     81          6           0       -2.676128    3.647013   -0.820688
     82          6           0       -1.599087    4.158784   -0.159604
     83          6           0        2.791027   -2.587073    0.788737
     84          6           0        2.103303   -2.697741    2.043623
     85         17           0        4.090105   -3.637226   -2.385254
     86         17           0        5.474154   -1.886020    1.083022
     87         17           0        5.217832    2.329786    1.383235
     88         17           0        3.498515    4.355624   -1.958986
 ---------------------------------------------------------------------

 The electronic state is 1-A.
 Alpha  occ. eigenvalues -- -101.55065-101.54962-101.54861-101.54722 -10.30397
 Alpha  occ. eigenvalues --  -10.30353 -10.30143 -10.30039 -10.25717 -10.25633
 Alpha  occ. eigenvalues --  -10.25600 -10.25587 -10.25540 -10.25480 -10.25447
 Alpha  occ. eigenvalues --  -10.25418 -10.25274 -10.25246 -10.25243 -10.25222
 Alpha  occ. eigenvalues --  -10.25165 -10.25041 -10.24959 -10.24950 -10.24907
 Alpha  occ. eigenvalues --  -10.24903 -10.24898 -10.24883 -10.24875 -10.24848
 Alpha  occ. eigenvalues --  -10.24802 -10.24770 -10.24744 -10.24638 -10.24637
 Alpha  occ. eigenvalues --  -10.24621 -10.24503 -10.24488 -10.24483 -10.24386
 Alpha  occ. eigenvalues --  -10.24367 -10.24364 -10.24317 -10.24311 -10.24284
 Alpha  occ. eigenvalues --  -10.24278 -10.24271 -10.24256 -10.24238 -10.24169
 Alpha  occ. eigenvalues --  -10.24149 -10.24119 -10.24101 -10.24052 -10.24000
 Alpha  occ. eigenvalues --  -10.23962 -10.23946 -10.23813 -10.23794 -10.23779
 Alpha  occ. eigenvalues --  -10.23759 -10.23686 -10.23659 -10.23658 -10.23646
 Alpha  occ. eigenvalues --  -10.23602 -10.23592 -10.23538 -10.23514 -10.23512
 Alpha  occ. eigenvalues --  -10.23466 -10.23403 -10.23387 -10.23327 -10.23312
 Alpha  occ. eigenvalues --  -10.23298 -10.23292 -10.23259 -10.23235 -10.23204
 Alpha  occ. eigenvalues --  -10.23187 -10.23132 -10.23071 -10.22981 -10.22887
 Alpha  occ. eigenvalues --  -10.22863 -10.22848 -10.22706  -9.46598  -9.46494
 Alpha  occ. eigenvalues --   -9.46396  -9.46247  -7.23032  -7.22936  -7.22834
 Alpha  occ. eigenvalues --   -7.22677  -7.22003  -7.21996  -7.21897  -7.21886
 Alpha  occ. eigenvalues --   -7.21801  -7.21789  -7.21652  -7.21651  -0.97946
 Alpha  occ. eigenvalues --   -0.96900  -0.96386  -0.96269  -0.94610  -0.94204
 Alpha  occ. eigenvalues --   -0.93998  -0.93822  -0.92978  -0.91251  -0.90987
 Alpha  occ. eigenvalues --   -0.90579  -0.89897  -0.89165  -0.89081  -0.88676
 Alpha  occ. eigenvalues --   -0.86929  -0.86550  -0.85692  -0.85377  -0.84716
 Alpha  occ. eigenvalues --   -0.84512  -0.84291  -0.83943  -0.83661  -0.82786
 Alpha  occ. eigenvalues --   -0.82136  -0.82026  -0.81548  -0.79673  -0.79298
 Alpha  occ. eigenvalues --   -0.78963  -0.78906  -0.78538  -0.78470  -0.78091
 Alpha  occ. eigenvalues --   -0.77175  -0.77077  -0.76913  -0.75586  -0.73711
 Alpha  occ. eigenvalues --   -0.73577  -0.72870  -0.72847  -0.72116  -0.71890
 Alpha  occ. eigenvalues --   -0.71478  -0.70638  -0.70157  -0.69734  -0.69024
 Alpha  occ. eigenvalues --   -0.67875  -0.67053  -0.66054  -0.65751  -0.65393
 Alpha  occ. eigenvalues --   -0.65043  -0.64484  -0.64095  -0.63924  -0.63506
 Alpha  occ. eigenvalues --   -0.62981  -0.62236  -0.61774  -0.61165  -0.59881
 Alpha  occ. eigenvalues --   -0.59488  -0.58916  -0.58496  -0.57828  -0.57503
 Alpha  occ. eigenvalues --   -0.57205  -0.56442  -0.55584  -0.55358  -0.54643
 Alpha  occ. eigenvalues --   -0.53923  -0.53668  -0.53350  -0.53102  -0.52884
 Alpha  occ. eigenvalues --   -0.52581  -0.52237  -0.51863  -0.51204  -0.50146
 Alpha  occ. eigenvalues --   -0.49827  -0.49749  -0.49584  -0.49247  -0.48832
 Alpha  occ. eigenvalues --   -0.48597  -0.48299  -0.48157  -0.47972  -0.47878
 Alpha  occ. eigenvalues --   -0.47515  -0.47214  -0.47115  -0.46792  -0.46613
 Alpha  occ. eigenvalues --   -0.46314  -0.46078  -0.45990  -0.45764  -0.45749
 Alpha  occ. eigenvalues --   -0.45307  -0.45060  -0.44726  -0.44637  -0.44412
 Alpha  occ. eigenvalues --   -0.44301  -0.43952  -0.43876  -0.43638  -0.43403
 Alpha  occ. eigenvalues --   -0.43205  -0.43047  -0.42795  -0.42423  -0.42242
 Alpha  occ. eigenvalues --   -0.41996  -0.41961  -0.41748  -0.41311  -0.41196
 Alpha  occ. eigenvalues --   -0.41009  -0.40848  -0.40537  -0.40118  -0.39826
 Alpha  occ. eigenvalues --   -0.39789  -0.39554  -0.39241  -0.39008  -0.38906
 Alpha  occ. eigenvalues --   -0.38453  -0.37804  -0.37501  -0.37348  -0.36908
 Alpha  occ. eigenvalues --   -0.36739  -0.36403  -0.36044  -0.35747  -0.35664
 Alpha  occ. eigenvalues --   -0.35516  -0.35407  -0.35139  -0.34893  -0.34333
 Alpha  occ. eigenvalues --   -0.34232  -0.33952  -0.33344  -0.33141  -0.32596
 Alpha  occ. eigenvalues --   -0.32066  -0.31848  -0.31510  -0.31432  -0.31217
 Alpha  occ. eigenvalues --   -0.31146  -0.30900  -0.30645  -0.30401  -0.30384
 Alpha  occ. eigenvalues --   -0.30098  -0.27979  -0.27814  -0.27699  -0.27631
 Alpha  occ. eigenvalues --   -0.27306  -0.27192  -0.26113  -0.25609  -0.25298
 Alpha  occ. eigenvalues --   -0.24583  -0.24177  -0.23367  -0.22168  -0.21754
 Alpha  occ. eigenvalues --   -0.20119
 Alpha virt. eigenvalues --   -0.16293  -0.12859  -0.11576  -0.11284  -0.10421
 Alpha virt. eigenvalues --   -0.08999  -0.08656  -0.07764  -0.06375  -0.06144
 Alpha virt. eigenvalues --   -0.05952  -0.05507  -0.04976  -0.04718  -0.04039

 Mulliken charges:
               1
     1  C    0.010429
     2  C   -0.366970
     3  C   -0.024095
     4  C   -0.030426
     5  C    0.043958
     6  C    0.079959
     7  C   -0.021350
     8  C   -0.031475
     9  C    0.034717
    10  C    0.147624
    11  C    0.051300
    12  C    0.054960
    13  C    0.018896
    14  C   -0.030908
    15  C    0.009389
    16  C   -0.030610
    17  C    0.013915
    18  C    0.054400
    19  C    0.080978
    20  C    0.048175
    21  C   -0.362970
    22  C   -0.023176
    23  C    0.082186
    24  C   -0.013851
    25  C   -0.004902
    26  C   -0.010234
    27  C   -0.019860
    28  C   -0.019288
    29  C    0.049242
    30  C   -0.014805
    31  C   -0.032085
    32  C   -0.011180
    33  C   -0.020909
    34  C   -0.020971
    35  C    0.038541
    36  C    0.046061
    37  C    0.041666
    38  C    0.040929
    39  C    0.066025
    40  C    0.007628
    41  C   -0.027242
    42  C    0.065149
    43  C    0.045585
    44  C    0.150103
    45  C    0.065869
    46  C   -0.034729
    47  C    0.069274
    48  C    0.005929
    49  C   -0.377535
    50  C    0.007618
    51  C    0.146575
    52  C    0.037091
    53  C   -0.375879
    54  C    0.009008
    55  C    0.088372
    56  C    0.088785
    57  C    0.121860
    58  C   -0.019236
    59  C    0.085681
    60  C   -0.024692
    61  C   -0.041554
    62  C   -0.019978
    63  C   -0.020593
    64  C    0.050379
    65  C   -0.027243
    66  C    0.044917
    67  C    0.052948
    68  C    0.045568
    69  C   -0.021804
    70  C   -0.024535
    71  C   -0.010929
    72  C    0.007703
    73  C   -0.013206
    74  C   -0.008253
    75  C    0.002709
    76  C    0.000588
    77  C   -0.024262
    78  C   -0.019255
    79  C   -0.041719
    80  C   -0.025349
    81  C    0.005903
    82  C   -0.020358
    83  C    0.075383
    84  C    0.020033
    85  Cl  -0.013846
    86  Cl  -0.003211
    87  Cl  -0.005779
    88  Cl  -0.022755
 Sum of Mulliken charges =  -0.00000

 Dipole moment (field-independent basis, Debye):
    X=             -6.0303    Y=             -0.6187    Z=             -0.0505  Tot=              6.0621
 Quadrupole moment (field-independent basis, Debye-Ang):
   XX=           -527.3085   YY=           -516.3173   ZZ=           -502.4479
   XY=             -3.2108   XZ=              3.3745   YZ=             -1.5322

 Normal termination of Gaussian 16 at Tue Jun 28 20:44:07 2022.
