 Gaussian 16, Revision A.03,
 Gaussian 16:  ES64L-G16RevA.03 25-Dec-2016

 ------------------------------------------------
 #P opt b3lyp/6-31G(d, p) empiricaldispersion=GD3
 ------------------------------------------------

 -----
 force
 -----
 Symbolic Z-matrix:
 Charge =  0 Multiplicity = 1

 SCF Done:  E(RB3LYP) =  -5041.80004512     A.U. after   21 cycles
 SCF Done:  E(RB3LYP) =  -5041.81413881     A.U. after   17 cycles
 SCF Done:  E(RB3LYP) =  -5041.81470354     A.U. after   15 cycles
 SCF Done:  E(RB3LYP) =  -5041.81486115     A.U. after   13 cycles
 SCF Done:  E(RB3LYP) =  -5041.81487420     A.U. after   11 cycles
 Optimization completed.
    -- Stationary point found.

                         Input orientation:
 ---------------------------------------------------------------------
 Center     Atomic      Atomic             Coordinates (Angstroms)
 Number     Number       Type             X           Y           Z
 ---------------------------------------------------------------------
      1          6           0        1.854441   -1.811893    3.692308
      2          6           0        0.262213    2.418126    3.503941
      3          6           0       -1.048111   -0.988238   -3.571670
      4          6           0       -2.019859    3.081032   -1.445850
      5          6           0        2.965822   -1.214477    3.053377
      6          6           0       -0.214550    1.191328    4.086952
      7          6           0        0.078210   -0.231664   -3.996101
      8          6           0       -2.613160    1.677919   -1.558260
      9          6           0        3.084601    0.250716    3.072277
     10          6           0       -1.462886    0.633020    3.725389
     11          6           0       -3.211340    0.972817   -0.533437
     12          6           0        0.241244    1.156032   -3.700372
     13          6           0        2.088351    0.982774    3.739740
     14          6           0       -0.870483    1.781126   -3.097479
     15          6           0        0.931085    0.347909    4.305063
     16          6           0       -1.999241    1.007871   -2.634167
     17          6           0        0.809513   -1.026763    4.265578
     18          6           0       -2.058697   -0.397247   -2.758899
     19          6           0       -0.471658   -1.632279    3.955723
     20          6           0       -2.725381   -1.138443   -1.718954
     21          6           0       -0.219130   -2.861851    3.268430
     22          6           0       -2.551167   -2.661099   -1.707384
     23          6           0        1.214399   -3.003160    3.148809
     24          6           0       -1.221423   -3.075952   -2.315382
     25          6           0        1.757677   -3.651478    2.067032
     26          6           0       -0.591490   -2.332577   -3.269835
     27          6           0        2.976069   -3.159610    1.482046
     28          6           0        0.848113   -2.369779   -3.399247
     29          6           0        3.585633   -1.967502    1.964050
     30          6           0        1.226317   -1.112839   -3.970665
     31          6           0        4.392881   -1.277394    1.044090
     32          6           0        2.479498   -0.598959   -3.745999
     33          6           0        4.587436    0.161750    1.128523
     34          6           0        2.676410    0.830814   -3.570314
     35          6           0        3.855955    0.955554    2.038168
     36          6           0        1.565594    1.710654   -3.439409
     37          6           0        3.481941    2.309331    1.624822
     38          6           0        1.689477    2.860548   -2.545519
     39          6           0        2.323115    2.961646    2.234573
     40          6           0        0.114618    3.901858    1.594580
     41          6           0       -0.473631    4.046826    0.271656
     42          6           0        0.483440    3.472319   -1.961296
     43          6           0        1.676545    2.304590    3.298000
     44          6           0       -0.546550    3.158047    2.599244
     45          6           0       -1.723258    3.436342   -0.016760
     46          6           0       -0.761524    2.948253   -2.307660
     47          6           0       -1.839059    2.641290    2.299564
     48          6           0       -2.413095    2.799715    0.992116
     49          6           0       -2.296761    1.421608    2.866675
     50          6           0       -3.463474    1.715171    0.768054
     51          6           0       -1.593590   -0.820486    3.650865
     52          6           0       -3.269464   -0.466477   -0.619121
     53          6           0       -2.529118   -1.367786    2.725338
     54          6           0       -3.724945   -1.257309    0.615002
     55          6           0       -3.344670   -0.531982    1.891746
     56          6           0       -3.228873    0.818872    1.963824
     57          6           0       -1.077929   -3.328742    2.237668
     58          6           0       -2.402787   -3.193259   -0.298867
     59          6           0       -0.497615   -4.009593    1.086625
     60          6           0       -1.168816   -3.909821   -0.161277
     61          6           0        0.910641   -4.175013    1.021294
     62          6           0       -0.444251   -3.830523   -1.395495
     63          6           0        1.636212   -4.056693   -0.204774
     64          6           0        0.988640   -3.816661   -1.435090
     65          6           0        2.923805   -3.455622    0.083418
     66          6           0        1.670957   -3.029860   -2.457766
     67          6           0        3.601462   -2.666353   -0.868612
     68          6           0        2.999804   -2.467975   -2.188603
     69          6           0        4.471474   -1.668189   -0.331505
     70          6           0        3.407515   -1.322350   -2.917517
     71          6           0        4.830890   -0.504592   -1.094793
     72          6           0        4.307957   -0.335945   -2.361109
     73          6           0        4.929415    0.621853   -0.184716
     74          6           0        3.860413    0.985530   -2.788879
     75          6           0        4.531245    1.884517   -0.592096
     76          6           0        3.971582    2.070248   -1.931015
     77          6           0        3.841983    2.736510    0.316402
     78          6           0        2.916126    3.024429   -1.848503
     79          6           0        1.529452    3.870487    1.464576
     80          6           0        0.573343    4.135031   -0.679429
     81          6           0        2.928756    3.534398   -0.484300
     82          6           0        1.805673    4.084492    0.066706
     83          6           0       -2.283076   -2.594151    2.041529
     84          6           0       -2.939450   -2.546451    0.766673
     85         17           0       -3.963012   -3.456382   -2.607513
     86         17           0       -5.545397   -1.560676    0.520195
     87         17           0       -5.174354    2.430269    0.788467
     88         17           0       -3.171624    4.339382   -2.200319
 ---------------------------------------------------------------------

 The electronic state is 1-A.
 Alpha  occ. eigenvalues -- -101.54913-101.54900-101.54595-101.54527 -10.30216
 Alpha  occ. eigenvalues --  -10.29979 -10.29939 -10.29659 -10.25861 -10.25518
 Alpha  occ. eigenvalues --  -10.25441 -10.25396 -10.25362 -10.25361 -10.25315
 Alpha  occ. eigenvalues --  -10.25313 -10.25275 -10.25265 -10.25254 -10.25206
 Alpha  occ. eigenvalues --  -10.25189 -10.25107 -10.24970 -10.24800 -10.24774
 Alpha  occ. eigenvalues --  -10.24733 -10.24690 -10.24650 -10.24591 -10.24585
 Alpha  occ. eigenvalues --  -10.24502 -10.24491 -10.24482 -10.24463 -10.24421
 Alpha  occ. eigenvalues --  -10.24417 -10.24401 -10.24359 -10.24331 -10.24324
 Alpha  occ. eigenvalues --  -10.24314 -10.24251 -10.24250 -10.24225 -10.24176
 Alpha  occ. eigenvalues --  -10.24154 -10.24141 -10.24133 -10.24083 -10.24079
 Alpha  occ. eigenvalues --  -10.24067 -10.24066 -10.24011 -10.23972 -10.23952
 Alpha  occ. eigenvalues --  -10.23949 -10.23929 -10.23925 -10.23913 -10.23911
 Alpha  occ. eigenvalues --  -10.23901 -10.23891 -10.23888 -10.23852 -10.23807
 Alpha  occ. eigenvalues --  -10.23782 -10.23782 -10.23742 -10.23718 -10.23696
 Alpha  occ. eigenvalues --  -10.23686 -10.23678 -10.23643 -10.23600 -10.23585
 Alpha  occ. eigenvalues --  -10.23557 -10.23525 -10.23439 -10.23391 -10.23391
 Alpha  occ. eigenvalues --  -10.23214 -10.23193 -10.23153 -10.23008 -10.22885
 Alpha  occ. eigenvalues --  -10.22674 -10.22599 -10.22518  -9.46447  -9.46437
 Alpha  occ. eigenvalues --   -9.46129  -9.46050  -7.22886  -7.22882  -7.22569
 Alpha  occ. eigenvalues --   -7.22484  -7.21852  -7.21842  -7.21840  -7.21824
 Alpha  occ. eigenvalues --   -7.21535  -7.21521  -7.21454  -7.21452  -0.97851
 Alpha  occ. eigenvalues --   -0.96760  -0.96376  -0.96332  -0.94623  -0.94171
 Alpha  occ. eigenvalues --   -0.94039  -0.93605  -0.93103  -0.91139  -0.90986
 Alpha  occ. eigenvalues --   -0.90407  -0.89999  -0.89254  -0.89056  -0.88753
 Alpha  occ. eigenvalues --   -0.86845  -0.86474  -0.85560  -0.85246  -0.85074
 Alpha  occ. eigenvalues --   -0.84251  -0.84174  -0.83934  -0.83745  -0.82732
 Alpha  occ. eigenvalues --   -0.82039  -0.81805  -0.81241  -0.79621  -0.79587
 Alpha  occ. eigenvalues --   -0.79000  -0.78895  -0.78581  -0.78416  -0.77976
 Alpha  occ. eigenvalues --   -0.77529  -0.77056  -0.76769  -0.75271  -0.73675
 Alpha  occ. eigenvalues --   -0.73540  -0.73118  -0.72535  -0.72051  -0.71767
 Alpha  occ. eigenvalues --   -0.71476  -0.70546  -0.70197  -0.69699  -0.69018
 Alpha  occ. eigenvalues --   -0.67964  -0.66985  -0.66116  -0.65657  -0.65193
 Alpha  occ. eigenvalues --   -0.64963  -0.64398  -0.64360  -0.63750  -0.63499
 Alpha  occ. eigenvalues --   -0.62699  -0.62251  -0.61908  -0.61245  -0.59835
 Alpha  occ. eigenvalues --   -0.59440  -0.58733  -0.58399  -0.57828  -0.57641
 Alpha  occ. eigenvalues --   -0.57128  -0.56264  -0.55491  -0.55231  -0.54751
 Alpha  occ. eigenvalues --   -0.54084  -0.53751  -0.53371  -0.53066  -0.52784
 Alpha  occ. eigenvalues --   -0.52665  -0.52108  -0.51745  -0.51384  -0.49948
 Alpha  occ. eigenvalues --   -0.49785  -0.49703  -0.49053  -0.48956  -0.48765
 Alpha  occ. eigenvalues --   -0.48593  -0.48435  -0.48195  -0.48087  -0.47753
 Alpha  occ. eigenvalues --   -0.47683  -0.47323  -0.47069  -0.46965  -0.46747
 Alpha  occ. eigenvalues --   -0.46415  -0.46157  -0.45917  -0.45635  -0.45511
 Alpha  occ. eigenvalues --   -0.45113  -0.44867  -0.44745  -0.44610  -0.44415
 Alpha  occ. eigenvalues --   -0.44179  -0.43862  -0.43850  -0.43521  -0.43411
 Alpha  occ. eigenvalues --   -0.43206  -0.42912  -0.42603  -0.42377  -0.42336
 Alpha  occ. eigenvalues --   -0.41991  -0.41812  -0.41590  -0.41450  -0.41147
 Alpha  occ. eigenvalues --   -0.40924  -0.40819  -0.40538  -0.40055  -0.39978
 Alpha  occ. eigenvalues --   -0.39870  -0.39547  -0.39327  -0.39218  -0.38891
 Alpha  occ. eigenvalues --   -0.38430  -0.37765  -0.37576  -0.37261  -0.36742
 Alpha  occ. eigenvalues --   -0.36479  -0.36339  -0.36027  -0.35934  -0.35811
 Alpha  occ. eigenvalues --   -0.35538  -0.35291  -0.35119  -0.34917  -0.34531
 Alpha  occ. eigenvalues --   -0.33911  -0.33766  -0.33624  -0.33414  -0.32755
 Alpha  occ. eigenvalues --   -0.32089  -0.31828  -0.31344  -0.31209  -0.30911
 Alpha  occ. eigenvalues --   -0.30850  -0.30629  -0.30425  -0.30162  -0.30051
 Alpha  occ. eigenvalues --   -0.29705  -0.28011  -0.27886  -0.27818  -0.27647
 Alpha  occ. eigenvalues --   -0.27404  -0.27305  -0.26714  -0.25672  -0.25398
 Alpha  occ. eigenvalues --   -0.24619  -0.23648  -0.23301  -0.21965  -0.21808
 Alpha  occ. eigenvalues --   -0.19771
 Alpha virt. eigenvalues --   -0.15371  -0.13833  -0.11892  -0.11093  -0.09958
 Alpha virt. eigenvalues --   -0.09553  -0.08700  -0.06995  -0.06447  -0.06095
 Alpha virt. eigenvalues --   -0.06033  -0.05315  -0.05056  -0.04468  -0.04128

 Mulliken charges:
               1
     1  C   -0.027987
     2  C   -0.023570
     3  C   -0.040829
     4  C   -0.370124
     5  C    0.052192
     6  C   -0.020303
     7  C   -0.010793
     8  C    0.082364
     9  C    0.043651
    10  C    0.053701
    11  C    0.146816
    12  C    0.043872
    13  C   -0.027971
    14  C    0.013590
    15  C   -0.013328
    16  C    0.004923
    17  C   -0.009941
    18  C    0.082806
    19  C   -0.017968
    20  C    0.103677
    21  C   -0.019080
    22  C   -0.359396
    23  C   -0.001268
    24  C    0.072000
    25  C   -0.015752
    26  C   -0.001194
    27  C   -0.020632
    28  C   -0.020767
    29  C    0.050968
    30  C   -0.016247
    31  C   -0.031310
    32  C   -0.006790
    33  C   -0.024399
    34  C   -0.019298
    35  C    0.041597
    36  C    0.043511
    37  C    0.040904
    38  C    0.040726
    39  C    0.056405
    40  C   -0.031720
    41  C    0.004359
    42  C    0.067917
    43  C   -0.030891
    44  C    0.064927
    45  C    0.150358
    46  C    0.042073
    47  C    0.006064
    48  C    0.072569
    49  C    0.005306
    50  C   -0.377928
    51  C    0.049770
    52  C    0.123930
    53  C    0.007332
    54  C   -0.372386
    55  C    0.086392
    56  C    0.091090
    57  C    0.048497
    58  C    0.087653
    59  C    0.050296
    60  C    0.001242
    61  C   -0.020099
    62  C    0.012281
    63  C   -0.026713
    64  C    0.043136
    65  C   -0.031207
    66  C    0.046422
    67  C    0.053175
    68  C    0.044957
    69  C   -0.020232
    70  C   -0.024643
    71  C   -0.008806
    72  C    0.004411
    73  C   -0.010892
    74  C   -0.009353
    75  C    0.000747
    76  C   -0.000898
    77  C   -0.023099
    78  C   -0.022255
    79  C   -0.023467
    80  C   -0.047982
    81  C    0.003409
    82  C   -0.019591
    83  C    0.004898
    84  C    0.087249
    85  Cl  -0.010592
    86  Cl   0.002341
    87  Cl  -0.005433
    88  Cl  -0.019369
 Sum of Mulliken charges =  -0.00000

 Dipole moment (field-independent basis, Debye):
    X=              6.0509    Y=             -1.5311    Z=              1.6058  Tot=              6.4449
 Quadrupole moment (field-independent basis, Debye-Ang):
   XX=           -527.5285   YY=           -515.0703   ZZ=           -500.4501
   XY=              3.3313   XZ=             -7.1111   YZ=             -1.2086

 Normal termination of Gaussian 16 at Wed Jun 29 20:40:04 2022.
