 Gaussian 16, Revision A.03,
 Gaussian 16:  ES64L-G16RevA.03 25-Dec-2016

 ------------------------------------------------
 #P opt b3lyp/6-31G(d, p) empiricaldispersion=GD3
 ------------------------------------------------

 -----
 force
 -----
 Symbolic Z-matrix:
 Charge =  0 Multiplicity = 1

 SCF Done:  E(RB3LYP) =  -5041.78576792     A.U. after   23 cycles
 SCF Done:  E(RB3LYP) =  -5041.79950408     A.U. after   18 cycles
 SCF Done:  E(RB3LYP) =  -5041.80002427     A.U. after   13 cycles
 SCF Done:  E(RB3LYP) =  -5041.80017497     A.U. after   12 cycles
 SCF Done:  E(RB3LYP) =  -5041.80019129     A.U. after   12 cycles
 Optimization completed.
    -- Stationary point found.

                         Input orientation:
 ---------------------------------------------------------------------
 Center     Atomic      Atomic             Coordinates (Angstroms)
 Number     Number       Type             X           Y           Z
 ---------------------------------------------------------------------
      1          6           0       -0.949642   -3.413165   -2.472408
      2          6           0        3.200572   -1.297575   -2.118493
      3          6           0       -2.120324    1.585307    3.436016
      4          6           0        2.382663    2.167875    2.261133
      5          6           0       -1.290103   -2.251227   -3.207865
      6          6           0        2.521677   -2.557616   -1.599369
      7          6           0       -2.266931    2.697999    2.547960
      8          6           0        1.548952    1.246110    3.142966
      9          6           0       -0.218637   -1.347745   -3.629089
     10          6           0        2.525112   -2.996982   -0.296364
     11          6           0        1.751501   -0.124844    3.273578
     12          6           0       -1.148861    3.336946    1.953078
     13          6           0        1.113922   -1.685808   -3.268322
     14          6           0        0.113608    2.928150    2.442231
     15          6           0        1.411603   -2.841191   -2.462751
     16          6           0        0.265206    1.825472    3.340964
     17          6           0        0.399722   -3.678930   -2.062394
     18          6           0       -0.845695    1.064015    3.786173
     19          6           0        0.407559   -4.214442   -0.723611
     20          6           0       -0.667388   -0.367097    3.990749
     21          6           0       -0.964227   -4.357164   -0.317435
     22          6           0       -1.821849   -1.187451    3.868716
     23          6           0       -1.798185   -3.923287   -1.420213
     24          6           0       -3.078353   -0.647274    3.389320
     25          6           0       -3.033996   -3.359530   -1.183194
     26          6           0       -3.233006    0.699048    3.197422
     27          6           0       -3.478058   -2.268486   -2.001871
     28          6           0       -4.010367    1.202049    2.078933
     29          6           0       -2.635729   -1.721300   -3.012535
     30          6           0       -3.478780    2.495977    1.780897
     31          6           0       -2.889619   -0.384278   -3.371312
     32          6           0       -3.576073    3.010118    0.512614
     33          6           0       -1.849565    0.469354   -3.894850
     34          6           0       -2.486683    3.789467   -0.060328
     35          6           0       -0.490258    0.048283   -3.909964
     36          6           0       -1.229745    3.872914    0.598324
     37          6           0        0.541926    1.051574   -3.671510
     38          6           0       -0.017724    3.933195   -0.211870
     39          6           0        1.845131    0.644267   -3.159813
     40          6           0        3.324472    1.029985   -1.193933
     41          6           0        3.161431    1.909175   -0.085066
     42          6           0        1.261477    3.502243    0.365058
     43          6           0        2.117865   -0.720005   -3.032805
     44          6           0        3.552141   -0.354880   -1.004238
     45          6           0        3.136998    1.420810    1.204403
     46          6           0        1.305919    3.068885    1.662062
     47          6           0        3.643528   -0.819831    0.290410
     48          6           0        3.391519    0.043337    1.396529
     49          6           0        3.407023   -2.266400    0.702612
     50          6           0        2.781378   -0.714299    2.447545
     51          6           0        1.429161   -3.845201    0.179609
     52          6           0        0.634057   -0.967821    3.719052
     53          6           0        1.051116   -3.802868    1.555888
     54          6           0        0.677468   -2.334850    3.362089
     55          6           0        1.685561   -2.858177    2.455468
     56          6           0        2.724784   -2.068435    2.044576
     57          6           0       -1.367591   -4.140201    1.022207
     58          6           0       -1.745531   -2.517441    3.359340
     59          6           0       -2.678002   -3.520465    1.275915
     60          6           0       -2.857115   -2.743910    2.447504
     61          6           0       -3.491701   -3.152480    0.167117
     62          6           0       -3.684255   -1.576221    2.463491
     63          6           0       -4.279290   -1.956509    0.165002
     64          6           0       -4.337108   -1.099349    1.287378
     65          6           0       -4.291527   -1.422182   -1.180540
     66          6           0       -4.489526    0.343731    1.063038
     67          6           0       -4.422476   -0.040327   -1.437938
     68          6           0       -4.561621    0.877120   -0.303767
     69          6           0       -3.844317    0.423955   -2.656383
     70          6           0       -4.195312    2.230681   -0.522537
     71          6           0       -3.441448    1.789335   -2.813988
     72          6           0       -3.617026    2.682918   -1.773967
     73          6           0       -2.219994    1.818338   -3.605174
     74          6           0       -2.582182    3.657879   -1.474239
     75          6           0       -1.238995    2.761615   -3.338476
     76          6           0       -1.416627    3.708459   -2.243677
     77          6           0        0.137093    2.388342   -3.405275
     78          6           0       -0.157018    3.908891   -1.619753
     79          6           0        2.567186    1.538805   -2.294784
     80          6           0        2.456430    3.185809   -0.527335
     81          6           0        0.840563    3.201395   -2.442429
     82          6           0        2.032118    2.798844   -1.925655
     83          6           0       -0.306373   -3.937909    1.959304
     84          6           0       -0.511960   -3.088849    3.119090
     85         17           0        5.019675   -3.161929    0.905518
     86         17           0        4.727110   -1.729427   -3.114115
     87         17           0        3.633748    4.620907   -0.544092
     88         17           0        3.549474    3.169976    3.325074
 ---------------------------------------------------------------------

 The electronic state is 1-A.
 Alpha  occ. eigenvalues -- -101.55280-101.55229-101.55093-101.54707 -10.30458
 Alpha  occ. eigenvalues --  -10.30425 -10.30391 -10.30302 -10.25835 -10.25802
 Alpha  occ. eigenvalues --  -10.25648 -10.25531 -10.25529 -10.25459 -10.25413
 Alpha  occ. eigenvalues --  -10.25390 -10.25342 -10.25321 -10.25310 -10.25299
 Alpha  occ. eigenvalues --  -10.25254 -10.25251 -10.25186 -10.25171 -10.25110
 Alpha  occ. eigenvalues --  -10.25080 -10.25064 -10.25049 -10.24999 -10.24978
 Alpha  occ. eigenvalues --  -10.24952 -10.24904 -10.24871 -10.24862 -10.24813
 Alpha  occ. eigenvalues --  -10.24790 -10.24771 -10.24714 -10.24648 -10.24602
 Alpha  occ. eigenvalues --  -10.24557 -10.24526 -10.24521 -10.24462 -10.24434
 Alpha  occ. eigenvalues --  -10.24380 -10.24377 -10.24343 -10.24181 -10.24144
 Alpha  occ. eigenvalues --  -10.24037 -10.24034 -10.24007 -10.23989 -10.23957
 Alpha  occ. eigenvalues --  -10.23947 -10.23908 -10.23864 -10.23847 -10.23822
 Alpha  occ. eigenvalues --  -10.23783 -10.23779 -10.23763 -10.23754 -10.23745
 Alpha  occ. eigenvalues --  -10.23679 -10.23658 -10.23616 -10.23553 -10.23496
 Alpha  occ. eigenvalues --  -10.23460 -10.23444 -10.23371 -10.23367 -10.23364
 Alpha  occ. eigenvalues --  -10.23343 -10.23313 -10.23173 -10.23150 -10.23097
 Alpha  occ. eigenvalues --  -10.23086 -10.23059 -10.23036 -10.23015 -10.22933
 Alpha  occ. eigenvalues --  -10.22907 -10.22735 -10.22454  -9.46815  -9.46764
 Alpha  occ. eigenvalues --   -9.46619  -9.46241  -7.23253  -7.23200  -7.23047
 Alpha  occ. eigenvalues --   -7.22657  -7.22219  -7.22209  -7.22170  -7.22158
 Alpha  occ. eigenvalues --   -7.22025  -7.22025  -7.21653  -7.21650  -0.98138
 Alpha  occ. eigenvalues --   -0.96769  -0.96536  -0.96444  -0.94587  -0.94438
 Alpha  occ. eigenvalues --   -0.94216  -0.93690  -0.93151  -0.91270  -0.91172
 Alpha  occ. eigenvalues --   -0.90296  -0.89868  -0.89326  -0.89127  -0.88951
 Alpha  occ. eigenvalues --   -0.87325  -0.86197  -0.86076  -0.85404  -0.84632
 Alpha  occ. eigenvalues --   -0.84494  -0.84143  -0.83986  -0.83903  -0.83264
 Alpha  occ. eigenvalues --   -0.82412  -0.81631  -0.81467  -0.79772  -0.79428
 Alpha  occ. eigenvalues --   -0.79043  -0.78843  -0.78687  -0.78580  -0.78387
 Alpha  occ. eigenvalues --   -0.77671  -0.76949  -0.76807  -0.75492  -0.73726
 Alpha  occ. eigenvalues --   -0.73586  -0.73207  -0.72882  -0.72210  -0.72017
 Alpha  occ. eigenvalues --   -0.71347  -0.70715  -0.70312  -0.69823  -0.68967
 Alpha  occ. eigenvalues --   -0.68053  -0.67223  -0.66156  -0.65843  -0.65369
 Alpha  occ. eigenvalues --   -0.65053  -0.64556  -0.64427  -0.63714  -0.63400
 Alpha  occ. eigenvalues --   -0.63053  -0.62465  -0.61959  -0.61397  -0.59889
 Alpha  occ. eigenvalues --   -0.59497  -0.58717  -0.58487  -0.57912  -0.57731
 Alpha  occ. eigenvalues --   -0.57157  -0.56626  -0.55661  -0.55343  -0.54836
 Alpha  occ. eigenvalues --   -0.54130  -0.53709  -0.53477  -0.53105  -0.52887
 Alpha  occ. eigenvalues --   -0.52818  -0.52116  -0.51969  -0.51388  -0.50301
 Alpha  occ. eigenvalues --   -0.49803  -0.49600  -0.49398  -0.49355  -0.48818
 Alpha  occ. eigenvalues --   -0.48676  -0.48366  -0.48286  -0.48037  -0.47958
 Alpha  occ. eigenvalues --   -0.47878  -0.47493  -0.47402  -0.46918  -0.46699
 Alpha  occ. eigenvalues --   -0.46322  -0.46205  -0.45915  -0.45855  -0.45705
 Alpha  occ. eigenvalues --   -0.45277  -0.45141  -0.44991  -0.44526  -0.44508
 Alpha  occ. eigenvalues --   -0.44317  -0.44125  -0.43891  -0.43648  -0.43381
 Alpha  occ. eigenvalues --   -0.43292  -0.43164  -0.42759  -0.42415  -0.42367
 Alpha  occ. eigenvalues --   -0.42026  -0.41853  -0.41734  -0.41490  -0.41038
 Alpha  occ. eigenvalues --   -0.40905  -0.40802  -0.40684  -0.40507  -0.40007
 Alpha  occ. eigenvalues --   -0.39717  -0.39521  -0.39334  -0.39234  -0.39051
 Alpha  occ. eigenvalues --   -0.38438  -0.38096  -0.37689  -0.37515  -0.37309
 Alpha  occ. eigenvalues --   -0.36894  -0.36549  -0.36262  -0.35858  -0.35695
 Alpha  occ. eigenvalues --   -0.35485  -0.35249  -0.35103  -0.34920  -0.34069
 Alpha  occ. eigenvalues --   -0.33952  -0.33633  -0.33440  -0.33258  -0.32775
 Alpha  occ. eigenvalues --   -0.32694  -0.32467  -0.31551  -0.31518  -0.31382
 Alpha  occ. eigenvalues --   -0.31279  -0.31012  -0.30955  -0.30801  -0.30182
 Alpha  occ. eigenvalues --   -0.29300  -0.27971  -0.27885  -0.27804  -0.27727
 Alpha  occ. eigenvalues --   -0.27484  -0.27187  -0.26569  -0.26226  -0.25146
 Alpha  occ. eigenvalues --   -0.24913  -0.23568  -0.23357  -0.22223  -0.21775
 Alpha  occ. eigenvalues --   -0.19341
 Alpha virt. eigenvalues --   -0.16159  -0.13373  -0.12399  -0.11254  -0.10520
 Alpha virt. eigenvalues --   -0.09956  -0.08806  -0.07161  -0.06751  -0.06074
 Alpha virt. eigenvalues --   -0.05795  -0.05259  -0.05105  -0.04673  -0.04044

 Mulliken charges:
               1
     1  C   -0.021646
     2  C   -0.364909
     3  C   -0.017062
     4  C   -0.371769
     5  C    0.051991
     6  C    0.081144
     7  C   -0.017766
     8  C    0.048586
     9  C    0.029863
    10  C    0.121518
    11  C    0.061486
    12  C    0.049833
    13  C    0.020268
    14  C    0.007340
    15  C    0.019977
    16  C    0.016576
    17  C   -0.020165
    18  C    0.044696
    19  C   -0.025617
    20  C    0.042635
    21  C   -0.021709
    22  C   -0.021752
    23  C    0.000102
    24  C   -0.010766
    25  C   -0.021818
    26  C   -0.012055
    27  C   -0.023941
    28  C   -0.021367
    29  C    0.052216
    30  C   -0.015808
    31  C   -0.031834
    32  C   -0.008985
    33  C   -0.026226
    34  C   -0.021575
    35  C    0.036218
    36  C    0.041767
    37  C    0.042904
    38  C    0.070408
    39  C    0.057220
    40  C    0.035125
    41  C    0.078575
    42  C    0.118152
    43  C    0.047859
    44  C    0.143863
    45  C    0.144315
    46  C    0.080837
    47  C    0.078459
    48  C    0.036477
    49  C   -0.365781
    50  C   -0.012066
    51  C    0.085726
    52  C    0.044885
    53  C   -0.037743
    54  C   -0.024169
    55  C    0.003546
    56  C    0.081017
    57  C    0.056373
    58  C   -0.010684
    59  C    0.059283
    60  C   -0.023945
    61  C   -0.025729
    62  C   -0.022985
    63  C   -0.029786
    64  C    0.052229
    65  C   -0.030360
    66  C    0.047709
    67  C    0.052000
    68  C    0.047000
    69  C   -0.027141
    70  C   -0.024407
    71  C   -0.009455
    72  C    0.003499
    73  C   -0.012240
    74  C   -0.009762
    75  C   -0.000735
    76  C    0.000794
    77  C   -0.021318
    78  C   -0.039744
    79  C   -0.007957
    80  C   -0.364799
    81  C    0.005431
    82  C    0.078385
    83  C   -0.017371
    84  C   -0.015389
    85  Cl  -0.008141
    86  Cl  -0.029846
    87  Cl  -0.010070
    88  Cl  -0.019892
 Sum of Mulliken charges =  -0.00000

 Dipole moment (field-independent basis, Debye):
    X=             -4.7422    Y=             -0.3927    Z=              0.1101  Tot=              4.7597
 Quadrupole moment (field-independent basis, Debye-Ang):
   XX=           -529.7358   YY=           -513.5947   ZZ=           -506.1786
   XY=             -3.2900   XZ=             -0.3351   YZ=             -2.8811

 Normal termination of Gaussian 16 at Tue Jun 28 14:56:22 2022.
