 Gaussian 16, Revision A.03,
 Gaussian 16:  ES64L-G16RevA.03 25-Dec-2016

 ------------------------------------------------
 #P opt b3lyp/6-31G(d, p) empiricaldispersion=GD3
 ------------------------------------------------

 -----
 force
 -----
 Symbolic Z-matrix:
 Charge =  0 Multiplicity = 1

 SCF Done:  E(RB3LYP) =  -5041.80460157     A.U. after   18 cycles
 SCF Done:  E(RB3LYP) =  -5041.81887536     A.U. after   15 cycles
 SCF Done:  E(RB3LYP) =  -5041.81933728     A.U. after   13 cycles
 SCF Done:  E(RB3LYP) =  -5041.81945133     A.U. after   11 cycles
 SCF Done:  E(RB3LYP) =  -5041.81946355     A.U. after    9 cycles
 Optimization completed.
    -- Stationary point found.

                         Input orientation:
 ---------------------------------------------------------------------
 Center     Atomic      Atomic             Coordinates (Angstroms)
 Number     Number       Type             X           Y           Z
 ---------------------------------------------------------------------
      1          6           0        0.921199   -0.656172    4.189852
      2          6           0        1.581837    3.250934    1.997899
      3          6           0       -1.922168   -1.827701   -3.039937
      4          6           0       -0.473621    2.507587   -2.832134
      5          6           0        2.118346   -1.031648    3.534007
      6          6           0        0.649008    2.802275    2.944018
      7          6           0       -0.626041   -1.981868   -3.582209
      8          6           0       -1.752195    1.828000   -2.596792
      9          6           0        2.940087    0.024083    2.930438
     10          6           0       -0.772083    2.820211    2.702676
     11          6           0       -2.531772    2.028428   -1.469501
     12          6           0        0.225045   -0.862567   -3.878811
     13          6           0        2.493936    1.351969    3.055255
     14          6           0       -0.384997    0.391718   -3.783082
     15          6           0        1.242589    1.684270    3.659971
     16          6           0       -1.693542    0.548991   -3.224007
     17          6           0        0.461043    0.694873    4.203179
     18          6           0       -2.445286   -0.536029   -2.731987
     19          6           0       -0.989769    0.718365    4.018790
     20          6           0       -3.276321   -0.322289   -1.570206
     21          6           0       -1.436112   -0.625562    3.971239
     22          6           0       -3.862155   -1.558377   -0.875247
     23          6           0       -0.272482   -1.482441    4.128776
     24          6           0       -2.972597   -2.779884   -1.049413
     25          6           0       -0.232551   -2.714865    3.529484
     26          6           0       -2.158139   -2.942212   -2.126250
     27          6           0        1.004082   -3.196800    2.976360
     28          6           0       -0.942084   -3.714744   -2.022488
     29          6           0        2.173811   -2.380422    2.980931
     30          6           0       -0.057442   -3.190958   -3.014820
     31          6           0        3.118769   -2.655654    1.978963
     32          6           0        1.299998   -3.295308   -2.853336
     33          6           0        4.009608   -1.624010    1.460365
     34          6           0        2.189189   -2.218969   -3.278895
     35          6           0        3.842718   -0.267139    1.821114
     36          6           0        1.682155   -0.968292   -3.694958
     37          6           0        4.137153    0.761986    0.817479
     38          6           0        2.455591    0.236813   -3.373059
     39          6           0        3.514552    2.067765    0.931833
     40          6           0        1.999593    3.636219   -0.361671
     41          6           0        1.440414    3.394949   -1.630573
     42          6           0        1.780152    1.523591   -3.254312
     43          6           0        2.739797    2.346200    2.032157
     44          6           0        1.164922    3.812715    0.750943
     45          6           0        0.027932    3.409888   -1.848876
     46          6           0        0.370119    1.599180   -3.492296
     47          6           0       -0.246289    3.893284    0.519486
     48          6           0       -0.800265    3.739399   -0.764217
     49          6           0       -1.195091    3.430234    1.505790
     50          6           0       -2.257569    3.292795   -0.658841
     51          6           0       -1.595826    1.743198    3.243630
     52          6           0       -3.310179    0.933461   -0.949388
     53          6           0       -2.769233    1.368244    2.528350
     54          6           0       -3.965805    1.094442    0.430902
     55          6           0       -3.155544    2.025662    1.315423
     56          6           0       -2.387891    3.032535    0.823414
     57          6           0       -2.521256   -1.030115    3.135788
     58          6           0       -3.850136   -1.409236    0.628942
     59          6           0       -2.465563   -2.332397    2.488212
     60          6           0       -3.119101   -2.486409    1.238449
     61          6           0       -1.333036   -3.166682    2.701546
     62          6           0       -2.577804   -3.321145    0.209419
     63          6           0       -0.771500   -3.963332    1.666466
     64          6           0       -1.335859   -4.013904    0.369950
     65          6           0        0.670869   -4.004078    1.847850
     66          6           0       -0.460036   -4.197694   -0.780318
     67          6           0        1.550459   -4.153188    0.753966
     68          6           0        0.990378   -4.288044   -0.593721
     69          6           0        2.850140   -3.588854    0.927914
     70          6           0        1.831691   -3.925969   -1.677533
     71          6           0        3.657063   -3.205607   -0.202431
     72          6           0        3.152217   -3.368917   -1.476564
     73          6           0        4.394015   -2.007814    0.145161
     74          6           0        3.372689   -2.334203   -2.479724
     75          6           0        4.639707   -1.026418   -0.817751
     76          6           0        4.097180   -1.198506   -2.161181
     77          6           0        4.567160    0.344550   -0.472290
     78          6           0        3.665831    0.077703   -2.645427
     79          6           0        3.383208    3.004013   -0.268395
     80          6           0        2.304313    2.498439   -2.371239
     81          6           0        4.092255    1.056048   -1.668304
     82          6           0        3.455003    2.252848   -1.574791
     83          6           0       -3.221262    0.013775    2.478170
     84          6           0       -3.897420   -0.194028    1.226921
     85         17           0       -5.564383   -1.889578   -1.530876
     86         17           0       -5.702322    1.694296    0.223346
     87         17           0       -3.409552    4.640154   -1.223038
     88         17           0        4.716326    4.311179   -0.171021
 ---------------------------------------------------------------------

 The electronic state is 1-A.
 Alpha  occ. eigenvalues -- -101.55052-101.54914-101.54767-101.54727 -10.30267
 Alpha  occ. eigenvalues --  -10.30124 -10.30065 -10.29866 -10.25806 -10.25496
 Alpha  occ. eigenvalues --  -10.25491 -10.25364 -10.25354 -10.25327 -10.25293
 Alpha  occ. eigenvalues --  -10.25275 -10.25254 -10.25234 -10.25137 -10.25121
 Alpha  occ. eigenvalues --  -10.25097 -10.25009 -10.24979 -10.24976 -10.24915
 Alpha  occ. eigenvalues --  -10.24745 -10.24729 -10.24698 -10.24647 -10.24636
 Alpha  occ. eigenvalues --  -10.24592 -10.24533 -10.24523 -10.24495 -10.24488
 Alpha  occ. eigenvalues --  -10.24451 -10.24447 -10.24446 -10.24431 -10.24420
 Alpha  occ. eigenvalues --  -10.24370 -10.24361 -10.24327 -10.24318 -10.24314
 Alpha  occ. eigenvalues --  -10.24306 -10.24261 -10.24259 -10.24235 -10.24193
 Alpha  occ. eigenvalues --  -10.24189 -10.24115 -10.24112 -10.24059 -10.23992
 Alpha  occ. eigenvalues --  -10.23933 -10.23911 -10.23876 -10.23860 -10.23852
 Alpha  occ. eigenvalues --  -10.23812 -10.23780 -10.23747 -10.23732 -10.23701
 Alpha  occ. eigenvalues --  -10.23699 -10.23695 -10.23692 -10.23647 -10.23636
 Alpha  occ. eigenvalues --  -10.23622 -10.23621 -10.23605 -10.23602 -10.23585
 Alpha  occ. eigenvalues --  -10.23547 -10.23544 -10.23528 -10.23517 -10.23476
 Alpha  occ. eigenvalues --  -10.23406 -10.23387 -10.23335 -10.23238 -10.23227
 Alpha  occ. eigenvalues --  -10.23153 -10.23132 -10.22646  -9.46587  -9.46452
 Alpha  occ. eigenvalues --   -9.46303  -9.46265  -7.23027  -7.22896  -7.22736
 Alpha  occ. eigenvalues --   -7.22684  -7.21990  -7.21980  -7.21854  -7.21841
 Alpha  occ. eigenvalues --   -7.21709  -7.21701  -7.21677  -7.21671  -0.97882
 Alpha  occ. eigenvalues --   -0.96739  -0.96587  -0.96242  -0.94624  -0.94373
 Alpha  occ. eigenvalues --   -0.93955  -0.93605  -0.93130  -0.91371  -0.90919
 Alpha  occ. eigenvalues --   -0.90519  -0.90016  -0.89150  -0.89000  -0.88829
 Alpha  occ. eigenvalues --   -0.87211  -0.86245  -0.85727  -0.85212  -0.84974
 Alpha  occ. eigenvalues --   -0.84525  -0.84257  -0.83914  -0.83755  -0.82668
 Alpha  occ. eigenvalues --   -0.82387  -0.81987  -0.81392  -0.79792  -0.79338
 Alpha  occ. eigenvalues --   -0.78987  -0.78869  -0.78657  -0.78364  -0.78146
 Alpha  occ. eigenvalues --   -0.77469  -0.77071  -0.76916  -0.75385  -0.73779
 Alpha  occ. eigenvalues --   -0.73700  -0.73115  -0.72587  -0.72064  -0.71760
 Alpha  occ. eigenvalues --   -0.71536  -0.70614  -0.70375  -0.69622  -0.69055
 Alpha  occ. eigenvalues --   -0.67890  -0.67012  -0.66234  -0.65882  -0.65268
 Alpha  occ. eigenvalues --   -0.64956  -0.64360  -0.64280  -0.63734  -0.63508
 Alpha  occ. eigenvalues --   -0.62724  -0.62471  -0.62082  -0.61325  -0.59825
 Alpha  occ. eigenvalues --   -0.59431  -0.58805  -0.58194  -0.57996  -0.57626
 Alpha  occ. eigenvalues --   -0.57266  -0.56328  -0.55584  -0.55192  -0.54680
 Alpha  occ. eigenvalues --   -0.54227  -0.53810  -0.53412  -0.53200  -0.52902
 Alpha  occ. eigenvalues --   -0.52675  -0.52224  -0.51748  -0.51331  -0.49939
 Alpha  occ. eigenvalues --   -0.49830  -0.49761  -0.49134  -0.49114  -0.48663
 Alpha  occ. eigenvalues --   -0.48583  -0.48512  -0.48292  -0.47964  -0.47791
 Alpha  occ. eigenvalues --   -0.47565  -0.47421  -0.47162  -0.46856  -0.46813
 Alpha  occ. eigenvalues --   -0.46665  -0.46404  -0.46049  -0.45772  -0.45703
 Alpha  occ. eigenvalues --   -0.45027  -0.44780  -0.44704  -0.44617  -0.44454
 Alpha  occ. eigenvalues --   -0.44284  -0.44001  -0.43709  -0.43614  -0.43437
 Alpha  occ. eigenvalues --   -0.43172  -0.42923  -0.42624  -0.42523  -0.42313
 Alpha  occ. eigenvalues --   -0.42167  -0.41884  -0.41578  -0.41464  -0.41133
 Alpha  occ. eigenvalues --   -0.41001  -0.40971  -0.40723  -0.40225  -0.39946
 Alpha  occ. eigenvalues --   -0.39758  -0.39543  -0.39273  -0.39166  -0.39052
 Alpha  occ. eigenvalues --   -0.38685  -0.37536  -0.37300  -0.37129  -0.36785
 Alpha  occ. eigenvalues --   -0.36561  -0.36547  -0.36198  -0.36141  -0.35930
 Alpha  occ. eigenvalues --   -0.35762  -0.35569  -0.35318  -0.35092  -0.34426
 Alpha  occ. eigenvalues --   -0.33991  -0.33839  -0.33690  -0.32973  -0.32643
 Alpha  occ. eigenvalues --   -0.32232  -0.31983  -0.31521  -0.31301  -0.31096
 Alpha  occ. eigenvalues --   -0.31027  -0.30823  -0.30653  -0.30588  -0.30352
 Alpha  occ. eigenvalues --   -0.29911  -0.28094  -0.27799  -0.27738  -0.27527
 Alpha  occ. eigenvalues --   -0.27422  -0.27120  -0.26587  -0.25838  -0.25227
 Alpha  occ. eigenvalues --   -0.24625  -0.23649  -0.22936  -0.22554  -0.21962
 Alpha  occ. eigenvalues --   -0.20595
 Alpha virt. eigenvalues --   -0.14678  -0.13528  -0.12889  -0.10834  -0.10091
 Alpha virt. eigenvalues --   -0.09906  -0.08892  -0.07027  -0.06475  -0.06043
 Alpha virt. eigenvalues --   -0.05847  -0.05487  -0.05148  -0.04339  -0.04014

 Mulliken charges:
               1
     1  C   -0.024765
     2  C   -0.035259
     3  C   -0.036559
     4  C   -0.043225
     5  C    0.050060
     6  C   -0.014157
     7  C   -0.012343
     8  C    0.001661
     9  C    0.044378
    10  C    0.049648
    11  C    0.131404
    12  C    0.057644
    13  C   -0.024825
    14  C   -0.033508
    15  C   -0.011110
    16  C   -0.031735
    17  C   -0.011005
    18  C    0.089079
    19  C   -0.019717
    20  C    0.100045
    21  C   -0.019617
    22  C   -0.356602
    23  C    0.000369
    24  C    0.073289
    25  C   -0.016477
    26  C   -0.000330
    27  C   -0.021134
    28  C   -0.019715
    29  C    0.050061
    30  C   -0.018642
    31  C   -0.032281
    32  C   -0.007189
    33  C   -0.024546
    34  C   -0.024381
    35  C    0.033309
    36  C    0.046781
    37  C    0.074033
    38  C    0.040283
    39  C    0.100378
    40  C    0.049800
    41  C    0.011378
    42  C    0.045460
    43  C    0.003626
    44  C    0.075495
    45  C    0.076965
    46  C   -0.016302
    47  C    0.014643
    48  C    0.047253
    49  C    0.001806
    50  C   -0.359439
    51  C    0.049511
    52  C    0.129808
    53  C    0.007671
    54  C   -0.371981
    55  C    0.089611
    56  C    0.090510
    57  C    0.047332
    58  C    0.089222
    59  C    0.049619
    60  C    0.002291
    61  C   -0.021962
    62  C    0.012307
    63  C   -0.025833
    64  C    0.042046
    65  C   -0.032208
    66  C    0.045220
    67  C    0.054521
    68  C    0.043055
    69  C   -0.021057
    70  C   -0.023798
    71  C   -0.009307
    72  C    0.004012
    73  C   -0.009950
    74  C   -0.007811
    75  C    0.001642
    76  C   -0.001340
    77  C   -0.043177
    78  C   -0.017802
    79  C   -0.342187
    80  C    0.005431
    81  C    0.006282
    82  C    0.073199
    83  C    0.005623
    84  C    0.087038
    85  Cl  -0.009596
    86  Cl  -0.000196
    87  Cl  -0.016590
    88  Cl  -0.035144
 Sum of Mulliken charges =  -0.00000

 Dipole moment (field-independent basis, Debye):
    X=              2.7367    Y=             -3.0928    Z=              1.4115  Tot=              4.3644
 Quadrupole moment (field-independent basis, Debye-Ang):
   XX=           -535.6467   YY=           -516.5442   ZZ=           -497.2810
   XY=             -3.0761   XZ=             -7.1991   YZ=              3.1985

 Normal termination of Gaussian 16 at Mon Jun 27 19:53:05 2022.
