 Gaussian 16, Revision A.03,
 Gaussian 16:  ES64L-G16RevA.03 25-Dec-2016

 ------------------------------------------------
 #P opt b3lyp/6-31G(d, p) empiricaldispersion=GD3
 ------------------------------------------------

 -----
 force
 -----
 Symbolic Z-matrix:
 Charge =  0 Multiplicity = 1

 SCF Done:  E(RB3LYP) =  -5041.78681469     A.U. after   26 cycles
 SCF Done:  E(RB3LYP) =  -5041.80122322     A.U. after   19 cycles
 SCF Done:  E(RB3LYP) =  -5041.80179168     A.U. after   18 cycles
 SCF Done:  E(RB3LYP) =  -5041.80191397     A.U. after   14 cycles
 SCF Done:  E(RB3LYP) =  -5041.80192398     A.U. after   12 cycles
 Optimization completed.
    -- Stationary point found.

                         Input orientation:
 ---------------------------------------------------------------------
 Center     Atomic      Atomic             Coordinates (Angstroms)
 Number     Number       Type             X           Y           Z
 ---------------------------------------------------------------------
      1          6           0        0.193494   -1.077424   -3.907580
      2          6           0        3.693316   -1.011910   -0.802659
      3          6           0       -3.580612   -0.173744    2.891810
      4          6           0        0.834611   -0.537012    3.833358
      5          6           0        0.267677    0.332855   -3.765715
      6          6           0        2.815668   -2.045041   -1.509731
      7          6           0       -3.268200    1.220226    2.976325
      8          6           0       -0.237246   -1.473064    3.807081
      9          6           0        1.405442    0.900995   -3.046062
     10          6           0        2.185202   -3.118701   -0.922719
     11          6           0       -0.158775   -2.683075    3.062508
     12          6           0       -1.990016    1.672910    3.399878
     13          6           0        2.391207    0.010365   -2.550525
     14          6           0       -1.141809    0.678288    3.954265
     15          6           0        2.259244   -1.420199   -2.669127
     16          6           0       -1.467450   -0.729419    3.885770
     17          6           0        1.169689   -1.950986   -3.312519
     18          6           0       -2.639391   -1.191093    3.261841
     19          6           0        0.517218   -3.112187   -2.762995
     20          6           0       -2.611564   -2.463422    2.530975
     21          6           0       -0.875079   -3.009924   -3.079951
     22          6           0       -3.575277   -2.635724    1.503782
     23          6           0       -1.059557   -1.780696   -3.839670
     24          6           0       -4.430549   -1.553683    1.079913
     25          6           0       -2.240048   -1.078535   -3.732676
     26          6           0       -4.453216   -0.362047    1.761730
     27          6           0       -2.217026    0.360039   -3.747719
     28          6           0       -4.588506    0.891194    1.055843
     29          6           0       -0.982444    1.067431   -3.778151
     30          6           0       -3.949111    1.875309    1.882856
     31          6           0       -1.003100    2.372289   -3.240337
     32          6           0       -3.422176    3.008693    1.320152
     33          6           0        0.158710    2.986291   -2.664703
     34          6           0       -2.169751    3.563209    1.822243
     35          6           0        1.334667    2.202294   -2.416543
     36          6           0       -1.390745    2.858194    2.786506
     37          6           0        2.142478    2.484767   -1.263462
     38          6           0        0.062171    2.962047    2.701688
     39          6           0        3.012685    1.506128   -0.732655
     40          6           0        3.431168    0.201828    1.363635
     41          6           0        2.715781    0.328592    2.564994
     42          6           0        0.896715    1.904521    3.246289
     43          6           0        3.160131    0.294546   -1.408015
     44          6           0        3.501651   -1.030794    0.686016
     45          6           0        2.041100   -0.780575    3.134100
     46          6           0        0.269288    0.794762    3.884882
     47          6           0        2.939581   -2.153256    1.286688
     48          6           0        2.184649   -2.030008    2.481836
     49          6           0        2.491114   -3.404382    0.537783
     50          6           0        1.111855   -2.989888    2.485172
     51          6           0        0.986140   -3.677531   -1.545962
     52          6           0       -1.360346   -3.210293    2.434009
     53          6           0       -0.011165   -4.293337   -0.738764
     54          6           0       -1.173398   -4.063319    1.307970
     55          6           0        0.124742   -4.289630    0.722042
     56          6           0        1.244380   -3.787978    1.317488
     57          6           0       -1.869954   -3.459450   -2.180957
     58          6           0       -3.287302   -3.391670    0.320310
     59          6           0       -3.127469   -2.698782   -2.069285
     60          6           0       -3.831821   -2.707209   -0.840663
     61          6           0       -3.301824   -1.536362   -2.870666
     62          6           0       -4.519468   -1.548974   -0.361229
     63          6           0       -3.957160   -0.365963   -2.374598
     64          6           0       -4.523746   -0.313388   -1.083218
     65          6           0       -3.306687    0.804849   -2.941213
     66          6           0       -4.532030    0.963533   -0.355533
     67          6           0       -3.277260    2.045290   -2.263270
     68          6           0       -3.936771    2.158669   -0.958543
     69          6           0       -2.171166    2.886832   -2.569623
     70          6           0       -3.487535    3.194962   -0.101647
     71          6           0       -1.724305    3.906266   -1.658601
     72          6           0       -2.371107    4.052038   -0.448454
     73          6           0       -0.279005    3.994858   -1.741432
     74          6           0       -1.581947    4.283424    0.748795
     75          6           0        0.459896    4.273254   -0.609110
     76          6           0       -0.189631    4.370573    0.649197
     77          6           0        1.866919    3.744677   -0.430188
     78          6           0        0.632006    3.746909    1.653092
     79          6           0        3.549061    1.568576    0.691426
     80          6           0        2.173674    1.669622    2.669972
     81          6           0        1.885819    3.425875    1.061033
     82          6           0        2.646771    2.415946    1.564382
     83          6           0       -1.389271   -4.173854   -1.039338
     84          6           0       -2.108086   -4.095963    0.229113
     85         17           0        3.774508   -4.745576    0.655456
     86         17           0        5.473503   -1.264482   -1.262536
     87         17           0        5.293980    2.171572    0.697031
     88         17           0        3.110073    5.047863   -0.874519
 ---------------------------------------------------------------------

 The electronic state is 1-A.
 Alpha  occ. eigenvalues -- -101.55298-101.55015-101.54924-101.54924 -10.30418
 Alpha  occ. eigenvalues --  -10.30273 -10.30225 -10.30055 -10.25657 -10.25630
 Alpha  occ. eigenvalues --  -10.25553 -10.25463 -10.25460 -10.25449 -10.25419
 Alpha  occ. eigenvalues --  -10.25385 -10.25363 -10.25313 -10.25163 -10.24996
 Alpha  occ. eigenvalues --  -10.24981 -10.24951 -10.24924 -10.24888 -10.24867
 Alpha  occ. eigenvalues --  -10.24864 -10.24819 -10.24814 -10.24804 -10.24776
 Alpha  occ. eigenvalues --  -10.24727 -10.24704 -10.24694 -10.24652 -10.24615
 Alpha  occ. eigenvalues --  -10.24558 -10.24549 -10.24462 -10.24420 -10.24398
 Alpha  occ. eigenvalues --  -10.24392 -10.24354 -10.24317 -10.24164 -10.24144
 Alpha  occ. eigenvalues --  -10.24134 -10.24117 -10.24084 -10.24037 -10.24024
 Alpha  occ. eigenvalues --  -10.23999 -10.23991 -10.23965 -10.23961 -10.23956
 Alpha  occ. eigenvalues --  -10.23927 -10.23920 -10.23862 -10.23784 -10.23780
 Alpha  occ. eigenvalues --  -10.23778 -10.23746 -10.23689 -10.23678 -10.23631
 Alpha  occ. eigenvalues --  -10.23613 -10.23606 -10.23589 -10.23567 -10.23522
 Alpha  occ. eigenvalues --  -10.23517 -10.23443 -10.23420 -10.23315 -10.23301
 Alpha  occ. eigenvalues --  -10.23263 -10.23238 -10.23160 -10.23129 -10.23123
 Alpha  occ. eigenvalues --  -10.23093 -10.22967 -10.22953 -10.22903 -10.22898
 Alpha  occ. eigenvalues --  -10.22883 -10.22546 -10.22357  -9.46825  -9.46546
 Alpha  occ. eigenvalues --   -9.46457  -9.46453  -7.23274  -7.22996  -7.22893
 Alpha  occ. eigenvalues --   -7.22892  -7.22224  -7.22214  -7.21946  -7.21934
 Alpha  occ. eigenvalues --   -7.21862  -7.21857  -7.21855  -7.21848  -0.97927
 Alpha  occ. eigenvalues --   -0.96832  -0.96461  -0.96105  -0.94473  -0.94395
 Alpha  occ. eigenvalues --   -0.93916  -0.93565  -0.93041  -0.91495  -0.91051
 Alpha  occ. eigenvalues --   -0.90238  -0.89716  -0.89242  -0.88905  -0.88695
 Alpha  occ. eigenvalues --   -0.87575  -0.86137  -0.85520  -0.85075  -0.84981
 Alpha  occ. eigenvalues --   -0.84580  -0.84261  -0.84072  -0.83770  -0.82931
 Alpha  occ. eigenvalues --   -0.81983  -0.81703  -0.81494  -0.79838  -0.79325
 Alpha  occ. eigenvalues --   -0.78952  -0.78887  -0.78598  -0.78461  -0.77658
 Alpha  occ. eigenvalues --   -0.77342  -0.76942  -0.76836  -0.75419  -0.73794
 Alpha  occ. eigenvalues --   -0.73490  -0.73158  -0.72591  -0.71848  -0.71638
 Alpha  occ. eigenvalues --   -0.71487  -0.70612  -0.70122  -0.69578  -0.68998
 Alpha  occ. eigenvalues --   -0.67977  -0.66990  -0.66161  -0.65753  -0.65239
 Alpha  occ. eigenvalues --   -0.65022  -0.64433  -0.64033  -0.63614  -0.63272
 Alpha  occ. eigenvalues --   -0.62899  -0.62259  -0.62003  -0.61110  -0.59811
 Alpha  occ. eigenvalues --   -0.59580  -0.58640  -0.58329  -0.58010  -0.57568
 Alpha  occ. eigenvalues --   -0.57100  -0.56488  -0.55479  -0.55252  -0.54639
 Alpha  occ. eigenvalues --   -0.53974  -0.53545  -0.53308  -0.53050  -0.52854
 Alpha  occ. eigenvalues --   -0.52603  -0.52068  -0.51886  -0.51260  -0.50133
 Alpha  occ. eigenvalues --   -0.49731  -0.49681  -0.49459  -0.49172  -0.48972
 Alpha  occ. eigenvalues --   -0.48535  -0.48211  -0.48098  -0.47909  -0.47772
 Alpha  occ. eigenvalues --   -0.47403  -0.47274  -0.46991  -0.46667  -0.46614
 Alpha  occ. eigenvalues --   -0.46494  -0.46208  -0.45925  -0.45797  -0.45680
 Alpha  occ. eigenvalues --   -0.45092  -0.44840  -0.44817  -0.44521  -0.44306
 Alpha  occ. eigenvalues --   -0.44266  -0.44168  -0.43929  -0.43689  -0.43266
 Alpha  occ. eigenvalues --   -0.43252  -0.43024  -0.42803  -0.42370  -0.42229
 Alpha  occ. eigenvalues --   -0.41957  -0.41885  -0.41324  -0.41126  -0.40983
 Alpha  occ. eigenvalues --   -0.40868  -0.40648  -0.40409  -0.40085  -0.39787
 Alpha  occ. eigenvalues --   -0.39641  -0.39558  -0.39462  -0.39071  -0.38937
 Alpha  occ. eigenvalues --   -0.38844  -0.38073  -0.37542  -0.37264  -0.36817
 Alpha  occ. eigenvalues --   -0.36396  -0.36220  -0.36005  -0.35874  -0.35797
 Alpha  occ. eigenvalues --   -0.35457  -0.35407  -0.35025  -0.34892  -0.34328
 Alpha  occ. eigenvalues --   -0.34228  -0.33817  -0.33625  -0.33411  -0.32719
 Alpha  occ. eigenvalues --   -0.32006  -0.31614  -0.31530  -0.31329  -0.31228
 Alpha  occ. eigenvalues --   -0.30996  -0.30863  -0.30509  -0.30455  -0.30265
 Alpha  occ. eigenvalues --   -0.29947  -0.28069  -0.27871  -0.27784  -0.27534
 Alpha  occ. eigenvalues --   -0.27425  -0.27169  -0.26508  -0.25298  -0.25139
 Alpha  occ. eigenvalues --   -0.24870  -0.23587  -0.23056  -0.22560  -0.21638
 Alpha  occ. eigenvalues --   -0.19088
 Alpha virt. eigenvalues --   -0.16804  -0.13084  -0.11931  -0.11104  -0.09890
 Alpha virt. eigenvalues --   -0.09153  -0.08826  -0.07323  -0.06615  -0.06118
 Alpha virt. eigenvalues --   -0.05962  -0.05434  -0.05064  -0.04545  -0.04283

 Mulliken charges:
               1
     1  C   -0.023677
     2  C   -0.380341
     3  C   -0.019377
     4  C   -0.027842
     5  C    0.053896
     6  C    0.076495
     7  C   -0.023028
     8  C   -0.031829
     9  C    0.033353
    10  C    0.122970
    11  C    0.050447
    12  C    0.055325
    13  C    0.015564
    14  C   -0.036077
    15  C    0.022580
    16  C   -0.039801
    17  C   -0.019024
    18  C    0.062122
    19  C   -0.021617
    20  C    0.041386
    21  C   -0.028600
    22  C   -0.024303
    23  C   -0.004956
    24  C   -0.013646
    25  C   -0.009527
    26  C   -0.014188
    27  C   -0.020330
    28  C   -0.021809
    29  C    0.045366
    30  C   -0.015930
    31  C   -0.024741
    32  C   -0.010488
    33  C   -0.041495
    34  C   -0.015115
    35  C    0.062900
    36  C    0.050562
    37  C    0.093613
    38  C    0.029830
    39  C    0.151643
    40  C    0.071764
    41  C    0.003417
    42  C    0.054404
    43  C    0.080177
    44  C    0.171247
    45  C    0.060529
    46  C   -0.025190
    47  C    0.070174
    48  C    0.001530
    49  C   -0.362493
    50  C    0.014617
    51  C    0.084172
    52  C    0.038235
    53  C   -0.039653
    54  C   -0.020139
    55  C    0.002887
    56  C    0.073750
    57  C    0.060779
    58  C   -0.012339
    59  C    0.060345
    60  C   -0.027238
    61  C   -0.027788
    62  C   -0.019836
    63  C   -0.031485
    64  C    0.057936
    65  C   -0.027653
    66  C    0.045421
    67  C    0.053587
    68  C    0.043419
    69  C   -0.014520
    70  C   -0.022950
    71  C   -0.011056
    72  C    0.004687
    73  C    0.006772
    74  C   -0.013138
    75  C    0.078777
    76  C    0.023678
    77  C   -0.361692
    78  C    0.001373
    79  C   -0.377398
    80  C   -0.002095
    81  C    0.091165
    82  C    0.088455
    83  C   -0.015950
    84  C   -0.009037
    85  Cl  -0.016796
    86  Cl  -0.004747
    87  Cl   0.004341
    88  Cl  -0.004755
 Sum of Mulliken charges =  -0.00000

 Dipole moment (field-independent basis, Debye):
    X=             -5.1502    Y=              0.5495    Z=             -0.1762  Tot=              5.1825
 Quadrupole moment (field-independent basis, Debye-Ang):
   XX=           -528.7484   YY=           -516.0304   ZZ=           -500.0500
   XY=             -2.1662   XZ=              1.5672   YZ=              2.6170

 Normal termination of Gaussian 16 at Thu Jun 30 04:09:30 2022.
