 Gaussian 16, Revision A.03,
 Gaussian 16:  ES64L-G16RevA.03 25-Dec-2016

 ------------------------------------------------
 #P opt b3lyp/6-31G(d, p) empiricaldispersion=GD3
 ------------------------------------------------

 -----
 force
 -----
 Symbolic Z-matrix:
 Charge =  0 Multiplicity = 1

 SCF Done:  E(RB3LYP) =  -5041.80522391     A.U. after   20 cycles
 SCF Done:  E(RB3LYP) =  -5041.81997125     A.U. after   15 cycles
 SCF Done:  E(RB3LYP) =  -5041.82050967     A.U. after   13 cycles
 SCF Done:  E(RB3LYP) =  -5041.82063527     A.U. after   11 cycles
 SCF Done:  E(RB3LYP) =  -5041.82064724     A.U. after    9 cycles
 Optimization completed.
    -- Stationary point found.

                         Input orientation:
 ---------------------------------------------------------------------
 Center     Atomic      Atomic             Coordinates (Angstroms)
 Number     Number       Type             X           Y           Z
 ---------------------------------------------------------------------
      1          6           0        0.560509    4.096346   -0.290871
      2          6           0        3.865277    1.906511    1.920401
      3          6           0       -0.553079   -3.514981   -1.919720
      4          6           0        3.202264   -3.245339    0.653190
      5          6           0       -0.194358    3.684777    0.835484
      6          6           0        3.807837    2.681072    0.710572
      7          6           0       -1.142252   -3.765591   -0.636163
      8          6           0        2.962689   -3.292900   -0.763893
      9          6           0        0.524259    3.234976    2.026076
     10          6           0        4.200882    2.142577   -0.534448
     11          6           0        3.520775   -2.347357   -1.642335
     12          6           0       -0.342596   -3.953045    0.522866
     13          6           0        1.938935    3.237292    1.997079
     14          6           0        1.050116   -4.068556    0.296166
     15          6           0        2.658000    3.556892    0.813989
     16          6           0        1.633685   -3.826537   -0.976001
     17          6           0        1.971771    3.956652   -0.321880
     18          6           0        0.858012   -3.446220   -2.096459
     19          6           0        2.386456    3.459574   -1.625683
     20          6           0        1.419333   -2.507629   -3.060422
     21          6           0        1.211486    3.362327   -2.438133
     22          6           0        0.492487   -1.747080   -3.814937
     23          6           0        0.087878    3.820530   -1.650874
     24          6           0       -0.928236   -1.790157   -3.553679
     25          6           0       -1.155285    3.312134   -1.877111
     26          6           0       -1.439597   -2.673775   -2.654681
     27          6           0       -2.184121    3.222829   -0.774719
     28          6           0       -2.715102   -2.399601   -1.876195
     29          6           0       -1.557506    3.230289    0.610841
     30          6           0       -2.409104   -3.104093   -0.575862
     31          6           0       -2.175994    2.479928    1.567930
     32          6           0       -2.874156   -2.653618    0.612340
     33          6           0       -1.491369    2.073654    2.762799
     34          6           0       -2.106069   -2.860045    1.808983
     35          6           0       -0.122189    2.351287    2.980615
     36          6           0       -0.814822   -3.453587    1.801829
     37          6           0        0.661115    1.396013    3.771458
     38          6           0        0.153437   -3.042078    2.822148
     39          6           0        2.106221    1.311331    3.571690
     40          6           0        3.833273   -0.334490    2.856203
     41          6           0        3.659050   -1.752462    2.512094
     42          6           0        1.593849   -3.153214    2.546100
     43          6           0        2.714656    2.243146    2.716784
     44          6           0        4.383546    0.581717    1.921002
     45          6           0        4.020035   -2.231027    1.222974
     46          6           0        2.009813   -3.690601    1.313204
     47          6           0        4.871449    0.072066    0.682620
     48          6           0        4.671272   -1.339454    0.329261
     49          6           0        4.804725    0.840625   -0.500357
     50          6           0        4.468799   -1.428229   -1.069855
     51          6           0        3.456379    2.540590   -1.744422
     52          6           0        2.750789   -1.942932   -2.828908
     53          6           0        3.357135    1.615431   -2.828076
     54          6           0        3.035073   -0.671625   -3.380345
     55          6           0        3.910052    0.275816   -2.707258
     56          6           0        4.613989   -0.092411   -1.596559
     57          6           0        1.054062    2.341192   -3.414518
     58          6           0        0.779547   -0.408520   -4.236352
     59          6           0       -0.277716    1.772784   -3.620257
     60          6           0       -0.408479    0.415964   -4.056286
     61          6           0       -1.337869    2.264426   -2.828726
     62          6           0       -1.451841   -0.429395   -3.619744
     63          6           0       -2.356464    1.384362   -2.319393
     64          6           0       -2.395164    0.006202   -2.636226
     65          6           0       -2.816508    1.859911   -1.070830
     66          6           0       -2.930206   -0.897594   -1.653371
     67          6           0       -3.296439    0.993078   -0.113639
     68          6           0       -3.373034   -0.411826   -0.414856
     69          6           0       -3.365723    1.539059    1.303487
     70          6           0       -3.721607   -1.394439    0.713415
     71          6           0       -3.136848    0.464734    2.333982
     72          6           0       -3.300562   -0.861715    2.069613
     73          6           0       -2.122124    0.892034    3.258639
     74          6           0       -2.453370   -1.823431    2.729145
     75          6           0       -1.370315   -0.026092    3.978989
     76          6           0       -1.536973   -1.437254    3.695257
     77          6           0        0.003270    0.236824    4.252062
     78          6           0       -0.257238   -2.070278    3.764763
     79          6           0        2.770501    0.043709    3.709698
     80          6           0        2.508125   -2.240514    3.177544
     81          6           0        0.672241   -1.056303    4.247786
     82          6           0        2.005032   -1.149921    3.978891
     83          6           0        2.193571    1.518740   -3.632722
     84          6           0        2.030776    0.117888   -4.021118
     85         17           0       -4.183948   -3.123287   -2.742970
     86         17           0       -5.535926   -1.753780    0.665756
     87         17           0       -4.984131    2.389457    1.597977
     88         17           0       -3.412509    4.604773   -0.940323
 ---------------------------------------------------------------------

 The electronic state is 1-A.
 Alpha  occ. eigenvalues -- -101.54942-101.54920-101.54878-101.54855 -10.30336
 Alpha  occ. eigenvalues --  -10.30271 -10.30091 -10.30010 -10.25983 -10.25542
 Alpha  occ. eigenvalues --  -10.25483 -10.25480 -10.25385 -10.25223 -10.25212
 Alpha  occ. eigenvalues --  -10.25204 -10.25154 -10.25135 -10.25114 -10.25085
 Alpha  occ. eigenvalues --  -10.25073 -10.25028 -10.24969 -10.24941 -10.24936
 Alpha  occ. eigenvalues --  -10.24904 -10.24778 -10.24750 -10.24708 -10.24594
 Alpha  occ. eigenvalues --  -10.24592 -10.24582 -10.24575 -10.24547 -10.24494
 Alpha  occ. eigenvalues --  -10.24480 -10.24421 -10.24344 -10.24288 -10.24285
 Alpha  occ. eigenvalues --  -10.24266 -10.24254 -10.24221 -10.24217 -10.24214
 Alpha  occ. eigenvalues --  -10.24150 -10.24149 -10.24116 -10.24112 -10.24102
 Alpha  occ. eigenvalues --  -10.24089 -10.24080 -10.24037 -10.24001 -10.23990
 Alpha  occ. eigenvalues --  -10.23985 -10.23924 -10.23858 -10.23842 -10.23831
 Alpha  occ. eigenvalues --  -10.23809 -10.23753 -10.23747 -10.23739 -10.23736
 Alpha  occ. eigenvalues --  -10.23575 -10.23559 -10.23535 -10.23533 -10.23531
 Alpha  occ. eigenvalues --  -10.23449 -10.23340 -10.23316 -10.23302 -10.23290
 Alpha  occ. eigenvalues --  -10.23275 -10.23253 -10.23248 -10.23217 -10.23200
 Alpha  occ. eigenvalues --  -10.23113 -10.23105 -10.23058 -10.23035 -10.22989
 Alpha  occ. eigenvalues --  -10.22894 -10.22712 -10.22694  -9.46478  -9.46449
 Alpha  occ. eigenvalues --   -9.46420  -9.46386  -7.22915  -7.22890  -7.22860
 Alpha  occ. eigenvalues --   -7.22831  -7.21882  -7.21872  -7.21854  -7.21842
 Alpha  occ. eigenvalues --   -7.21823  -7.21810  -7.21789  -7.21775  -0.97926
 Alpha  occ. eigenvalues --   -0.96735  -0.96338  -0.96297  -0.94414  -0.94229
 Alpha  occ. eigenvalues --   -0.93973  -0.93510  -0.93179  -0.91198  -0.90936
 Alpha  occ. eigenvalues --   -0.90339  -0.89746  -0.89486  -0.88983  -0.88718
 Alpha  occ. eigenvalues --   -0.86778  -0.86559  -0.85731  -0.84949  -0.84808
 Alpha  occ. eigenvalues --   -0.84508  -0.84203  -0.84043  -0.83724  -0.82711
 Alpha  occ. eigenvalues --   -0.82343  -0.81899  -0.81319  -0.79548  -0.79347
 Alpha  occ. eigenvalues --   -0.78939  -0.78683  -0.78568  -0.78279  -0.78165
 Alpha  occ. eigenvalues --   -0.77627  -0.77258  -0.76606  -0.75311  -0.73561
 Alpha  occ. eigenvalues --   -0.73223  -0.73131  -0.72559  -0.72137  -0.71896
 Alpha  occ. eigenvalues --   -0.71377  -0.70549  -0.70187  -0.69606  -0.69057
 Alpha  occ. eigenvalues --   -0.67899  -0.67177  -0.65932  -0.65522  -0.65183
 Alpha  occ. eigenvalues --   -0.64812  -0.64520  -0.64302  -0.63716  -0.63428
 Alpha  occ. eigenvalues --   -0.62674  -0.62250  -0.61793  -0.61006  -0.60194
 Alpha  occ. eigenvalues --   -0.59362  -0.59056  -0.57989  -0.57942  -0.57510
 Alpha  occ. eigenvalues --   -0.57117  -0.56016  -0.55438  -0.55313  -0.54509
 Alpha  occ. eigenvalues --   -0.54236  -0.53774  -0.53272  -0.52976  -0.52822
 Alpha  occ. eigenvalues --   -0.52533  -0.52248  -0.51842  -0.51352  -0.50187
 Alpha  occ. eigenvalues --   -0.49613  -0.49561  -0.49035  -0.48941  -0.48848
 Alpha  occ. eigenvalues --   -0.48597  -0.48469  -0.48003  -0.47988  -0.47825
 Alpha  occ. eigenvalues --   -0.47615  -0.47380  -0.47167  -0.46843  -0.46618
 Alpha  occ. eigenvalues --   -0.46491  -0.45933  -0.45789  -0.45631  -0.45376
 Alpha  occ. eigenvalues --   -0.45282  -0.44920  -0.44854  -0.44657  -0.44523
 Alpha  occ. eigenvalues --   -0.44141  -0.43971  -0.43735  -0.43483  -0.43399
 Alpha  occ. eigenvalues --   -0.43143  -0.42834  -0.42662  -0.42481  -0.42326
 Alpha  occ. eigenvalues --   -0.41774  -0.41595  -0.41502  -0.41354  -0.41117
 Alpha  occ. eigenvalues --   -0.40882  -0.40628  -0.40525  -0.40306  -0.39835
 Alpha  occ. eigenvalues --   -0.39745  -0.39373  -0.39264  -0.39029  -0.38848
 Alpha  occ. eigenvalues --   -0.38214  -0.38056  -0.37816  -0.37479  -0.36902
 Alpha  occ. eigenvalues --   -0.36688  -0.36453  -0.36037  -0.35658  -0.35448
 Alpha  occ. eigenvalues --   -0.35368  -0.35116  -0.35074  -0.34971  -0.34478
 Alpha  occ. eigenvalues --   -0.34014  -0.33884  -0.33536  -0.33248  -0.32494
 Alpha  occ. eigenvalues --   -0.32218  -0.32046  -0.31779  -0.31279  -0.31207
 Alpha  occ. eigenvalues --   -0.30873  -0.30782  -0.30629  -0.30269  -0.30055
 Alpha  occ. eigenvalues --   -0.29832  -0.27937  -0.27767  -0.27634  -0.27509
 Alpha  occ. eigenvalues --   -0.27351  -0.27208  -0.26617  -0.25904  -0.25347
 Alpha  occ. eigenvalues --   -0.24555  -0.23545  -0.22548  -0.22400  -0.21482
 Alpha  occ. eigenvalues --   -0.20998
 Alpha virt. eigenvalues --   -0.15728  -0.13304  -0.11758  -0.10488  -0.10114
 Alpha virt. eigenvalues --   -0.09748  -0.08138  -0.07190  -0.06642  -0.06322
 Alpha virt. eigenvalues --   -0.05843  -0.05287  -0.04928  -0.04438  -0.04319

 Mulliken charges:
               1
     1  C   -0.047258
     2  C   -0.024300
     3  C    0.008910
     4  C   -0.029877
     5  C    0.073193
     6  C   -0.025026
     7  C    0.001258
     8  C   -0.034863
     9  C    0.034415
    10  C    0.065748
    11  C    0.063872
    12  C    0.045371
    13  C   -0.027056
    14  C   -0.029280
    15  C   -0.016533
    16  C   -0.027758
    17  C   -0.005397
    18  C    0.043540
    19  C   -0.018673
    20  C    0.046067
    21  C   -0.017201
    22  C   -0.019200
    23  C    0.005911
    24  C   -0.002303
    25  C    0.071214
    26  C    0.072971
    27  C   -0.363710
    28  C   -0.357475
    29  C    0.118754
    30  C    0.088294
    31  C    0.076866
    32  C    0.087707
    33  C    0.008547
    34  C    0.006173
    35  C    0.034587
    36  C    0.036751
    37  C    0.047081
    38  C    0.046351
    39  C    0.052150
    40  C   -0.024207
    41  C   -0.022924
    42  C    0.061243
    43  C   -0.028889
    44  C    0.067605
    45  C    0.071373
    46  C   -0.031584
    47  C   -0.022331
    48  C   -0.023817
    49  C   -0.024641
    50  C   -0.024113
    51  C    0.052627
    52  C    0.042945
    53  C   -0.018913
    54  C   -0.021252
    55  C   -0.001466
    56  C   -0.017163
    57  C    0.056629
    58  C   -0.013797
    59  C    0.047127
    60  C   -0.010798
    61  C    0.009670
    62  C   -0.035929
    63  C    0.003236
    64  C    0.081299
    65  C    0.084084
    66  C    0.104218
    67  C    0.144390
    68  C    0.120231
    69  C   -0.376020
    70  C   -0.370654
    71  C    0.089174
    72  C    0.090946
    73  C    0.020838
    74  C    0.021769
    75  C   -0.013755
    76  C   -0.015127
    77  C   -0.022838
    78  C   -0.022585
    79  C   -0.020363
    80  C   -0.024677
    81  C   -0.000990
    82  C   -0.019276
    83  C   -0.020507
    84  C   -0.008148
    85  Cl  -0.010151
    86  Cl  -0.002310
    87  Cl  -0.001000
    88  Cl  -0.008999
 Sum of Mulliken charges =  -0.00000

 Dipole moment (field-independent basis, Debye):
    X=              5.0429    Y=             -0.5686    Z=              0.3546  Tot=              5.0873
 Quadrupole moment (field-independent basis, Debye-Ang):
   XX=           -531.6636   YY=           -513.5149   ZZ=           -498.7576
   XY=              3.0396   XZ=             -4.9210   YZ=             -3.9141

 Normal termination of Gaussian 16 at Wed Jun 29 03:48:28 2022.
