 Gaussian 16, Revision A.03,
 Gaussian 16:  ES64L-G16RevA.03 25-Dec-2016

 ------------------------------------------------
 #P opt b3lyp/6-31G(d, p) empiricaldispersion=GD3
 ------------------------------------------------

 -----
 force
 -----
 Symbolic Z-matrix:
 Charge =  0 Multiplicity = 1

 SCF Done:  E(RB3LYP) =  -5041.80556133     A.U. after   21 cycles
 SCF Done:  E(RB3LYP) =  -5041.81972585     A.U. after   16 cycles
 SCF Done:  E(RB3LYP) =  -5041.82021346     A.U. after   13 cycles
 SCF Done:  E(RB3LYP) =  -5041.82033045     A.U. after   11 cycles
 SCF Done:  E(RB3LYP) =  -5041.82034084     A.U. after    9 cycles
 Optimization completed.
    -- Stationary point found.

                         Input orientation:
 ---------------------------------------------------------------------
 Center     Atomic      Atomic             Coordinates (Angstroms)
 Number     Number       Type             X           Y           Z
 ---------------------------------------------------------------------
      1          6           0        1.836973    0.933482   -3.155091
      2          6           0       -1.052407    3.993979   -1.525107
      3          6           0       -0.801493   -2.271666    3.435805
      4          6           0       -2.693766    1.864751    3.096155
      5          6           0        0.645607    0.359042   -3.664090
      6          6           0        0.383367    3.892281   -1.574633
      7          6           0       -2.045992   -2.644235    2.840529
      8          6           0       -1.527196    1.351129    3.750008
      9          6           0       -0.577382    1.165606   -3.686244
     10          6           0        1.181203    3.892632   -0.407395
     11          6           0       -0.259002    1.942984    3.579051
     12          6           0       -3.097223   -1.710035    2.655664
     13          6           0       -0.498326    2.494856   -3.232685
     14          6           0       -2.912919   -0.453136    3.281704
     15          6           0        0.709210    3.027658   -2.670468
     16          6           0       -1.678732   -0.082256    3.883850
     17          6           0        1.851863    2.254083   -2.614922
     18          6           0       -0.556880   -0.946357    3.885466
     19          6           0        2.722767    2.310807   -1.479374
     20          6           0        0.770860   -0.370663    3.731421
     21          6           0        3.582043    1.041312   -1.468185
     22          6           0        1.768025   -1.217207    3.182900
     23          6           0        2.848632    0.172948   -2.475721
     24          6           0        1.492346   -2.534443    2.695258
     25          6           0        2.702772   -1.168350   -2.325676
     26          6           0        0.237399   -3.041206    2.789253
     27          6           0        1.549698   -1.807016   -2.871106
     28          6           0       -0.357228   -3.819621    1.704416
     29          6           0        0.550182   -1.082507   -3.580201
     30          6           0       -1.761645   -3.646680    1.829031
     31          6           0       -0.714428   -1.689745   -3.662508
     32          6           0       -2.584557   -3.752099    0.726173
     33          6           0       -1.924526   -0.891006   -3.772096
     34          6           0       -3.739585   -2.880159    0.582071
     35          6           0       -1.891398    0.516690   -3.654958
     36          6           0       -3.956992   -1.792717    1.466488
     37          6           0       -3.027157    1.183236   -3.008886
     38          6           0       -4.555012   -0.568249    0.928671
     39          6           0       -2.840350    2.497325   -2.391262
     40          6           0       -3.015668    3.599662   -0.164703
     41          6           0       -3.468281    3.020187    1.105413
     42          6           0       -4.313130    0.722042    1.598661
     43          6           0       -1.598074    3.137773   -2.547748
     44          6           0       -1.723122    4.164579   -0.288853
     45          6           0       -2.609128    2.998185    2.240081
     46          6           0       -3.538558    0.747986    2.770144
     47          6           0       -0.905987    4.265227    0.887219
     48          6           0       -1.358034    3.660005    2.151040
     49          6           0        0.492922    4.177206    0.822784
     50          6           0       -0.223612    3.173386    2.842949
     51          6           0        2.388061    3.070052   -0.379647
     52          6           0        0.921508    1.078528    3.569971
     53          6           0        3.029932    2.690723    0.942077
     54          6           0        2.057599    1.560963    2.877734
     55          6           0        2.048846    2.773975    2.106054
     56          6           0        0.935426    3.546247    2.064412
     57          6           0        3.600186    0.385648   -0.100335
     58          6           0        2.827938   -0.696579    2.374728
     59          6           0        3.441096   -1.042116    0.054856
     60          6           0        3.112965   -1.564818    1.290459
     61          6           0        3.225497   -1.946362   -1.140154
     62          6           0        2.405102   -2.898424    1.535643
     63          6           0        2.074115   -2.935735   -0.907995
     64          6           0        1.622985   -3.358909    0.312863
     65          6           0        1.206767   -2.922929   -2.050697
     66          6           0        0.266389   -3.889875    0.435243
     67          6           0       -0.105003   -3.439979   -2.005449
     68          6           0       -0.594254   -3.969630   -0.741116
     69          6           0       -1.019224   -2.894974   -2.957604
     70          6           0       -2.005841   -4.000726   -0.556120
     71          6           0       -2.436117   -2.908229   -2.715265
     72          6           0       -2.916072   -3.444936   -1.536923
     73          6           0       -2.998139   -1.678502   -3.245287
     74          6           0       -3.994021   -2.775280   -0.823058
     75          6           0       -4.042486   -1.050763   -2.585035
     76          6           0       -4.545659   -1.610249   -1.333049
     77          6           0       -4.074167    0.371014   -2.498366
     78          6           0       -4.869240   -0.533400   -0.453420
     79          6           0       -3.589890    2.845456   -1.220654
     80          6           0       -4.331575    1.935233    0.824230
     81          6           0       -4.710885    0.691205   -1.229839
     82          6           0       -4.472808    1.881114   -0.612149
     83          6           0        3.415939    1.213547    0.991196
     84          6           0        2.971431    0.673360    2.225555
     85         17           0        5.310883    1.407978   -2.024678
     86         17           0        4.506756    3.768124    1.276217
     87         17           0        4.785579   -2.851874   -1.559557
     88         17           0        3.621083   -4.211169    2.042198
 ---------------------------------------------------------------------

 The electronic state is 1-A.
 Alpha  occ. eigenvalues -- -101.55152-101.55102-101.55021-101.54968 -10.30441
 Alpha  occ. eigenvalues --  -10.30412 -10.30394 -10.30319 -10.25631 -10.25538
 Alpha  occ. eigenvalues --  -10.25469 -10.25461 -10.25443 -10.25391 -10.25378
 Alpha  occ. eigenvalues --  -10.25334 -10.25303 -10.25261 -10.25251 -10.25227
 Alpha  occ. eigenvalues --  -10.25206 -10.25145 -10.25056 -10.25056 -10.24933
 Alpha  occ. eigenvalues --  -10.24927 -10.24921 -10.24909 -10.24859 -10.24811
 Alpha  occ. eigenvalues --  -10.24805 -10.24702 -10.24655 -10.24650 -10.24632
 Alpha  occ. eigenvalues --  -10.24590 -10.24547 -10.24528 -10.24476 -10.24400
 Alpha  occ. eigenvalues --  -10.24396 -10.24353 -10.24331 -10.24230 -10.24173
 Alpha  occ. eigenvalues --  -10.24147 -10.24144 -10.24094 -10.24078 -10.24062
 Alpha  occ. eigenvalues --  -10.24058 -10.24055 -10.23973 -10.23946 -10.23942
 Alpha  occ. eigenvalues --  -10.23931 -10.23915 -10.23847 -10.23842 -10.23796
 Alpha  occ. eigenvalues --  -10.23769 -10.23703 -10.23703 -10.23682 -10.23585
 Alpha  occ. eigenvalues --  -10.23554 -10.23532 -10.23526 -10.23472 -10.23418
 Alpha  occ. eigenvalues --  -10.23410 -10.23360 -10.23335 -10.23304 -10.23229
 Alpha  occ. eigenvalues --  -10.23228 -10.23211 -10.23165 -10.23063 -10.23036
 Alpha  occ. eigenvalues --  -10.22991 -10.22967 -10.22948 -10.22940 -10.22855
 Alpha  occ. eigenvalues --  -10.22806 -10.22632 -10.22468  -9.46684  -9.46632
 Alpha  occ. eigenvalues --   -9.46556  -9.46499  -7.23121  -7.23076  -7.22996
 Alpha  occ. eigenvalues --   -7.22935  -7.22087  -7.22081  -7.22034  -7.22023
 Alpha  occ. eigenvalues --   -7.21958  -7.21950  -7.21905  -7.21895  -0.97999
 Alpha  occ. eigenvalues --   -0.96838  -0.96344  -0.96288  -0.94600  -0.94250
 Alpha  occ. eigenvalues --   -0.93925  -0.93676  -0.92978  -0.91142  -0.90838
 Alpha  occ. eigenvalues --   -0.90691  -0.89825  -0.89436  -0.89021  -0.88630
 Alpha  occ. eigenvalues --   -0.86861  -0.86461  -0.85985  -0.85314  -0.84882
 Alpha  occ. eigenvalues --   -0.84232  -0.83994  -0.83893  -0.83591  -0.82949
 Alpha  occ. eigenvalues --   -0.82450  -0.81984  -0.81735  -0.79685  -0.79198
 Alpha  occ. eigenvalues --   -0.78891  -0.78620  -0.78500  -0.78458  -0.78079
 Alpha  occ. eigenvalues --   -0.77497  -0.77029  -0.76886  -0.75445  -0.73669
 Alpha  occ. eigenvalues --   -0.73585  -0.72961  -0.72757  -0.71981  -0.71851
 Alpha  occ. eigenvalues --   -0.71405  -0.70551  -0.70142  -0.69762  -0.69019
 Alpha  occ. eigenvalues --   -0.67911  -0.67018  -0.66045  -0.65714  -0.65236
 Alpha  occ. eigenvalues --   -0.65017  -0.64428  -0.64087  -0.63974  -0.63522
 Alpha  occ. eigenvalues --   -0.62740  -0.62146  -0.61879  -0.60971  -0.60003
 Alpha  occ. eigenvalues --   -0.59457  -0.59174  -0.58258  -0.57711  -0.57593
 Alpha  occ. eigenvalues --   -0.57146  -0.56159  -0.55541  -0.55349  -0.54502
 Alpha  occ. eigenvalues --   -0.53827  -0.53770  -0.53455  -0.53038  -0.52915
 Alpha  occ. eigenvalues --   -0.52769  -0.52258  -0.51707  -0.51150  -0.50335
 Alpha  occ. eigenvalues --   -0.49809  -0.49665  -0.49451  -0.49076  -0.48927
 Alpha  occ. eigenvalues --   -0.48562  -0.48248  -0.48102  -0.47948  -0.47720
 Alpha  occ. eigenvalues --   -0.47442  -0.47388  -0.47042  -0.46886  -0.46619
 Alpha  occ. eigenvalues --   -0.46569  -0.46077  -0.45942  -0.45718  -0.45488
 Alpha  occ. eigenvalues --   -0.45224  -0.45017  -0.44772  -0.44537  -0.44527
 Alpha  occ. eigenvalues --   -0.44198  -0.44018  -0.43894  -0.43640  -0.43350
 Alpha  occ. eigenvalues --   -0.43113  -0.42932  -0.42709  -0.42508  -0.42268
 Alpha  occ. eigenvalues --   -0.41950  -0.41693  -0.41609  -0.41299  -0.41192
 Alpha  occ. eigenvalues --   -0.40957  -0.40593  -0.40428  -0.40344  -0.40116
 Alpha  occ. eigenvalues --   -0.39909  -0.39294  -0.39142  -0.39077  -0.39013
 Alpha  occ. eigenvalues --   -0.38239  -0.38079  -0.37608  -0.37301  -0.36815
 Alpha  occ. eigenvalues --   -0.36579  -0.36353  -0.36148  -0.35689  -0.35607
 Alpha  occ. eigenvalues --   -0.35425  -0.35241  -0.35064  -0.34889  -0.34483
 Alpha  occ. eigenvalues --   -0.34056  -0.33736  -0.33348  -0.33027  -0.32603
 Alpha  occ. eigenvalues --   -0.32119  -0.32063  -0.31817  -0.31420  -0.31302
 Alpha  occ. eigenvalues --   -0.31227  -0.30942  -0.30843  -0.30478  -0.30392
 Alpha  occ. eigenvalues --   -0.30288  -0.27969  -0.27747  -0.27722  -0.27653
 Alpha  occ. eigenvalues --   -0.27117  -0.26787  -0.26233  -0.25573  -0.25490
 Alpha  occ. eigenvalues --   -0.24598  -0.23986  -0.23289  -0.21825  -0.21679
 Alpha  occ. eigenvalues --   -0.21083
 Alpha virt. eigenvalues --   -0.15469  -0.13018  -0.12184  -0.10576  -0.10167
 Alpha virt. eigenvalues --   -0.09090  -0.08393  -0.07794  -0.06477  -0.06146
 Alpha virt. eigenvalues --   -0.05906  -0.05538  -0.04805  -0.04626  -0.04434

 Mulliken charges:
               1
     1  C    0.005907
     2  C   -0.025104
     3  C   -0.020329
     4  C   -0.030614
     5  C    0.040919
     6  C   -0.028525
     7  C   -0.020634
     8  C   -0.031749
     9  C    0.045128
    10  C    0.090364
    11  C    0.059013
    12  C    0.055610
    13  C   -0.028352
    14  C   -0.031548
    15  C   -0.023319
    16  C   -0.030736
    17  C    0.022312
    18  C    0.050078
    19  C    0.077441
    20  C    0.041366
    21  C   -0.378140
    22  C    0.011273
    23  C    0.090677
    24  C    0.075579
    25  C    0.087922
    26  C    0.001335
    27  C    0.013376
    28  C   -0.038817
    29  C    0.042765
    30  C   -0.009569
    31  C   -0.031538
    32  C   -0.011931
    33  C   -0.023028
    34  C   -0.021632
    35  C    0.042176
    36  C    0.045264
    37  C    0.041550
    38  C    0.041588
    39  C    0.055075
    40  C   -0.026176
    41  C   -0.023601
    42  C    0.063660
    43  C   -0.031686
    44  C    0.066867
    45  C    0.071150
    46  C   -0.036976
    47  C   -0.014158
    48  C   -0.023587
    49  C   -0.041152
    50  C   -0.023616
    51  C    0.118441
    52  C    0.038510
    53  C   -0.362483
    54  C    0.012427
    55  C    0.082614
    56  C   -0.003517
    57  C    0.146319
    58  C    0.010501
    59  C    0.146291
    60  C    0.080807
    61  C   -0.379813
    62  C   -0.362300
    63  C    0.073201
    64  C    0.118338
    65  C    0.004999
    66  C    0.070597
    67  C    0.045239
    68  C    0.040701
    69  C   -0.018602
    70  C   -0.022926
    71  C   -0.009742
    72  C    0.007748
    73  C   -0.011712
    74  C   -0.008689
    75  C    0.001500
    76  C    0.000050
    77  C   -0.022937
    78  C   -0.021723
    79  C   -0.020535
    80  C   -0.021889
    81  C    0.000056
    82  C   -0.023655
    83  C    0.079860
    84  C    0.012312
    85  Cl  -0.004458
    86  Cl  -0.011252
    87  Cl  -0.001122
    88  Cl  -0.015037
 Sum of Mulliken charges =  -0.00000

 Dipole moment (field-independent basis, Debye):
    X=             -5.2023    Y=             -0.1212    Z=             -0.4281  Tot=              5.2213
 Quadrupole moment (field-independent basis, Debye-Ang):
   XX=           -528.0987   YY=           -515.7095   ZZ=           -501.7011
   XY=              4.3973   XZ=              4.2979   YZ=              2.0167

 Normal termination of Gaussian 16 at Wed Jun 29 20:56:25 2022.
