 Gaussian 16, Revision A.03,
 Gaussian 16:  ES64L-G16RevA.03 25-Dec-2016

 ------------------------------------------------
 #P opt b3lyp/6-31G(d, p) empiricaldispersion=GD3
 ------------------------------------------------

 -----
 force
 -----
 Symbolic Z-matrix:
 Charge =  0 Multiplicity = 3

 SCF Done:  E(UB3LYP) =  -5041.79498951     A.U. after   30 cycles
 SCF Done:  E(UB3LYP) =  -5041.80975279     A.U. after   20 cycles
 SCF Done:  E(UB3LYP) =  -5041.81030318     A.U. after   18 cycles
 SCF Done:  E(UB3LYP) =  -5041.81044100     A.U. after   15 cycles
 SCF Done:  E(UB3LYP) =  -5041.81045494     A.U. after   12 cycles
 Optimization completed.
    -- Stationary point found.

                         Input orientation:
 ---------------------------------------------------------------------
 Center     Atomic      Atomic             Coordinates (Angstroms)
 Number     Number       Type             X           Y           Z
 ---------------------------------------------------------------------
      1          6           0       -1.815466   -1.994647    3.609221
      2          6           0       -1.323412   -4.210269   -0.298977
      3          6           0        1.843856    3.254379   -1.359576
      4          6           0        1.180244   -0.850130   -3.514364
      5          6           0       -2.958927   -1.472702    2.950712
      6          6           0       -0.633942   -4.246628    0.961167
      7          6           0        0.445815    3.362208   -1.975055
      8          6           0        2.228318   -0.262507   -2.679444
      9          6           0       -3.441975   -2.150406    1.741459
     10          6           0        0.761596   -3.974644    1.061820
     11          6           0        2.882168   -0.942437   -1.652293
     12          6           0       -0.082892    2.481905   -2.940370
     13          6           0       -2.748685   -3.297344    1.308275
     14          6           0        0.768816    1.420840   -3.341647
     15          6           0       -1.547237   -3.751486    1.956495
     16          6           0        1.989183    1.125459   -2.592305
     17          6           0       -1.080997   -3.095835    3.075423
     18          6           0        2.425822    1.860889   -1.493599
     19          6           0        0.345244   -2.856291    3.240429
     20          6           0        3.097590    1.189674   -0.442763
     21          6           0        0.497330   -1.636704    3.958216
     22          6           0        3.328535    1.940913    0.871916
     23          6           0       -0.834572   -1.125361    4.233747
     24          6           0        2.228196    2.962425    1.100672
     25          6           0       -1.053121    0.226372    4.315135
     26          6           0        1.567836    3.583698    0.092602
     27          6           0       -2.273750    0.778432    3.792653
     28          6           0        0.205634    3.990020    0.265130
     29          6           0       -3.225902   -0.051048    3.126954
     30          6           0       -0.411269    3.975544   -1.031076
     31          6           0       -4.059400    0.595912    2.199559
     32          6           0       -1.783439    3.860753   -1.147375
     33          6           0       -4.628573   -0.108447    1.058743
     34          6           0       -2.356999    3.091344   -2.225160
     35          6           0       -4.231925   -1.424044    0.739236
     36          6           0       -1.535278    2.300865   -3.065495
     37          6           0       -4.162962   -1.801156   -0.678479
     38          6           0       -2.069677    1.028666   -3.563900
     39          6           0       -3.286822   -2.898035   -1.092283
     40          6           0       -1.320070   -3.341906   -2.560527
     41          6           0       -0.634444   -2.438662   -3.445435
     42          6           0       -1.149355   -0.045314   -3.948580
     43          6           0       -2.629002   -3.643341   -0.089219
     44          6           0       -0.624176   -3.991094   -1.514153
     45          6           0        0.753788   -2.178271   -3.271683
     46          6           0        0.263542    0.190707   -3.850427
     47          6           0        0.793191   -3.799344   -1.430653
     48          6           0        1.474407   -2.938155   -2.310339
     49          6           0        1.475153   -3.826190   -0.158366
     50          6           0        2.773958   -2.461314   -1.665058
     51          6           0        1.259921   -3.254598    2.230336
     52          6           0        3.321378   -0.210477   -0.519350
     53          6           0        2.415299   -2.435220    2.076182
     54          6           0        3.806231   -0.982972    0.713565
     55          6           0        3.100801   -2.324499    0.822512
     56          6           0        2.638659   -3.006218   -0.260646
     57          6           0        1.572772   -0.741270    3.693324
     58          6           0        3.129034    1.027538    2.062622
     59          6           0        1.332498    0.693450    3.762989
     60          6           0        2.105895    1.541143    2.930354
     61          6           0        0.029193    1.162182    4.091387
     62          6           0        1.546343    2.713314    2.332356
     63          6           0       -0.538473    2.305656    3.469191
     64          6           0        0.178616    3.073837    2.520124
     65          6           0       -1.966141    2.084348    3.307213
     66          6           0       -0.542460    3.715020    1.434530
     67          6           0       -2.695089    2.678916    2.255494
     68          6           0       -1.996151    3.549265    1.308916
     69          6           0       -3.857536    1.964964    1.832513
     70          6           0       -2.589107    3.727149    0.034698
     71          6           0       -4.403728    2.146037    0.514075
     72          6           0       -3.783051    3.013118   -0.365231
     73          6           0       -4.905403    0.869179    0.049584
     74          6           0       -3.642309    2.641116   -1.765385
     75          6           0       -4.798906    0.526133   -1.291303
     76          6           0       -4.140261    1.433808   -2.217625
     77          6           0       -4.462482   -0.813378   -1.653291
     78          6           0       -3.378241    0.652370   -3.154010
     79          6           0       -2.663559   -2.866358   -2.373741
     80          6           0       -1.554220   -1.395446   -3.826912
     81          6           0       -3.704387   -0.732263   -2.892136
     82          6           0       -2.822683   -1.725053   -3.230323
     83          6           0        2.567897   -1.208438    2.791412
     84          6           0        3.351962   -0.308608    1.992191
     85         17           0        5.000524    2.727036    0.873704
     86         17           0        5.643063   -1.183316    0.648975
     87         17           0        4.245543   -3.182716   -2.545777
     88         17           0        2.991480    4.490393   -2.152166
 ---------------------------------------------------------------------

 Alpha  occ. eigenvalues --   -0.86798  -0.86223  -0.85715  -0.85471  -0.84845
 Alpha  occ. eigenvalues --   -0.84643  -0.84241  -0.84096  -0.83895  -0.82852
 Alpha  occ. eigenvalues --   -0.82088  -0.81580  -0.81257  -0.79764  -0.79650
 Alpha  occ. eigenvalues --   -0.79012  -0.78910  -0.78558  -0.78446  -0.78028
 Alpha  occ. eigenvalues --   -0.77496  -0.77053  -0.76727  -0.75443  -0.73784
 Alpha  occ. eigenvalues --   -0.73617  -0.73254  -0.72480  -0.72012  -0.71885
 Alpha  occ. eigenvalues --   -0.71552  -0.70581  -0.70273  -0.69631  -0.69101
 Alpha  occ. eigenvalues --   -0.67992  -0.66984  -0.66200  -0.65841  -0.65206
 Alpha  occ. eigenvalues --   -0.65050  -0.64464  -0.64231  -0.63694  -0.63431
 Alpha  occ. eigenvalues --   -0.62681  -0.62453  -0.62056  -0.61394  -0.59833
 Alpha  occ. eigenvalues --   -0.59543  -0.58843  -0.58183  -0.57868  -0.57769
 Alpha  occ. eigenvalues --   -0.57194  -0.56377  -0.55584  -0.55207  -0.54701
 Alpha  occ. eigenvalues --   -0.54088  -0.53821  -0.53447  -0.53172  -0.52889
 Alpha  occ. eigenvalues --   -0.52566  -0.52160  -0.51778  -0.51430  -0.50033
 Alpha  occ. eigenvalues --   -0.49830  -0.49710  -0.49248  -0.48973  -0.48696
 Alpha  occ. eigenvalues --   -0.48658  -0.48523  -0.48320  -0.48114  -0.47831
 Alpha  occ. eigenvalues --   -0.47744  -0.47254  -0.47080  -0.46954  -0.46635
 Alpha  occ. eigenvalues --   -0.46481  -0.46260  -0.46072  -0.45743  -0.45531
 Alpha  occ. eigenvalues --   -0.45253  -0.44882  -0.44755  -0.44697  -0.44468
 Alpha  occ. eigenvalues --   -0.44332  -0.44119  -0.44041  -0.43563  -0.43434
 Alpha  occ. eigenvalues --   -0.43218  -0.42879  -0.42767  -0.42438  -0.42307
 Alpha  occ. eigenvalues --   -0.42178  -0.41937  -0.41593  -0.41434  -0.41227
 Alpha  occ. eigenvalues --   -0.41030  -0.40892  -0.40588  -0.40191  -0.39987
 Alpha  occ. eigenvalues --   -0.39858  -0.39563  -0.39477  -0.39232  -0.39062
 Alpha  occ. eigenvalues --   -0.38514  -0.37972  -0.37584  -0.37421  -0.36771
 Alpha  occ. eigenvalues --   -0.36497  -0.36361  -0.36197  -0.35832  -0.35638
 Alpha  occ. eigenvalues --   -0.35550  -0.35411  -0.35356  -0.35037  -0.34798
 Alpha  occ. eigenvalues --   -0.34262  -0.34004  -0.33797  -0.33529  -0.32902
 Alpha  occ. eigenvalues --   -0.32148  -0.31935  -0.31421  -0.31212  -0.31093
 Alpha  occ. eigenvalues --   -0.31013  -0.30593  -0.30534  -0.30243  -0.30058
 Alpha  occ. eigenvalues --   -0.29675  -0.28252  -0.28207  -0.27985  -0.27833
 Alpha  occ. eigenvalues --   -0.27481  -0.27300  -0.26880  -0.25864  -0.25670
 Alpha  occ. eigenvalues --   -0.24419  -0.23998  -0.23382  -0.22700  -0.22119
 Alpha  occ. eigenvalues --   -0.20602  -0.19506
 Alpha virt. eigenvalues --   -0.14128  -0.11863  -0.11220  -0.09925  -0.09568
 Alpha virt. eigenvalues --   -0.08751  -0.07153  -0.06663  -0.06253  -0.06101
 Alpha virt. eigenvalues --   -0.05621  -0.05472  -0.04355  -0.04209  -0.03820

  Beta  occ. eigenvalues -- -101.54713-101.54710-101.54662-101.54626 -10.30050
  Beta  occ. eigenvalues --  -10.29999 -10.29957 -10.29911 -10.25492 -10.25464
  Beta  occ. eigenvalues --  -10.25349 -10.25330 -10.25287 -10.25280 -10.25253
  Beta  occ. eigenvalues --  -10.25251 -10.25234 -10.25195 -10.25171 -10.25086
  Beta  occ. eigenvalues --  -10.25018 -10.24980 -10.24937 -10.24795 -10.24786
  Beta  occ. eigenvalues --  -10.24759 -10.24759 -10.24728 -10.24680 -10.24671
  Beta  occ. eigenvalues --  -10.24619 -10.24515 -10.24501 -10.24446 -10.24414
  Beta  occ. eigenvalues --  -10.24413 -10.24386 -10.24359 -10.24344 -10.24333
  Beta  occ. eigenvalues --  -10.24312 -10.24257 -10.24236 -10.24228 -10.24218
  Beta  occ. eigenvalues --  -10.24204 -10.24150 -10.24126 -10.24072 -10.24049
  Beta  occ. eigenvalues --  -10.23997 -10.23981 -10.23974 -10.23948 -10.23941
  Beta  occ. eigenvalues --  -10.23864 -10.23852 -10.23835 -10.23772 -10.23749
  Beta  occ. eigenvalues --  -10.23719 -10.23680 -10.23658 -10.23656 -10.23646
  Beta  occ. eigenvalues --  -10.23631 -10.23630 -10.23617 -10.23589 -10.23578
  Beta  occ. eigenvalues --  -10.23551 -10.23543 -10.23531 -10.23490 -10.23472
  Beta  occ. eigenvalues --  -10.23461 -10.23438 -10.23392 -10.23391 -10.23390
  Beta  occ. eigenvalues --  -10.23336 -10.23329 -10.23264 -10.23251 -10.23202
  Beta  occ. eigenvalues --  -10.23181 -10.23124 -10.22628  -9.46249  -9.46246
  Beta  occ. eigenvalues --   -9.46196  -9.46158  -7.22692  -7.22684  -7.22610
  Beta  occ. eigenvalues --   -7.22562  -7.21650  -7.21647  -7.21640  -7.21636
  Beta  occ. eigenvalues --   -7.21605  -7.21597  -7.21569  -7.21564  -0.97760
  Beta  occ. eigenvalues --   -0.96671  -0.96419  -0.96117  -0.94525  -0.94137
  Beta  occ. eigenvalues --   -0.93843  -0.93457  -0.93034  -0.91118  -0.91039
  Beta  occ. eigenvalues --   -0.90309  -0.89795  -0.89047  -0.88970  -0.88834
  Beta  occ. eigenvalues --   -0.86704  -0.86114  -0.85603  -0.85364  -0.84753
  Beta  occ. eigenvalues --   -0.84476  -0.84140  -0.83955  -0.83758  -0.82751
  Beta  occ. eigenvalues --   -0.81950  -0.81495  -0.81113  -0.79637  -0.79544
  Beta  occ. eigenvalues --   -0.78897  -0.78835  -0.78463  -0.78350  -0.77907
  Beta  occ. eigenvalues --   -0.77324  -0.76885  -0.76595  -0.75318  -0.73687
  Beta  occ. eigenvalues --   -0.73541  -0.73128  -0.72426  -0.71788  -0.71477
  Beta  occ. eigenvalues --   -0.71417  -0.70495  -0.70185  -0.69509  -0.69012
  Beta  occ. eigenvalues --   -0.67911  -0.66898  -0.66132  -0.65767  -0.65065
  Beta  occ. eigenvalues --   -0.64912  -0.64339  -0.64061  -0.63616  -0.63328
  Beta  occ. eigenvalues --   -0.62549  -0.62294  -0.61945  -0.61269  -0.59774
  Beta  occ. eigenvalues --   -0.59476  -0.58740  -0.58064  -0.57791  -0.57650
  Beta  occ. eigenvalues --   -0.57117  -0.56264  -0.55441  -0.55135  -0.54618
  Beta  occ. eigenvalues --   -0.54005  -0.53738  -0.53370  -0.53114  -0.52793
  Beta  occ. eigenvalues --   -0.52478  -0.52078  -0.51676  -0.51357  -0.49849
  Beta  occ. eigenvalues --   -0.49719  -0.49622  -0.49150  -0.48875  -0.48575
  Beta  occ. eigenvalues --   -0.48559  -0.48365  -0.48032  -0.48011  -0.47717
  Beta  occ. eigenvalues --   -0.47492  -0.47098  -0.46982  -0.46844  -0.46578
  Beta  occ. eigenvalues --   -0.46327  -0.46173  -0.45818  -0.45670  -0.45300
  Beta  occ. eigenvalues --   -0.45100  -0.44742  -0.44625  -0.44439  -0.44274
  Beta  occ. eigenvalues --   -0.44229  -0.44024  -0.43771  -0.43464  -0.43314
  Beta  occ. eigenvalues --   -0.43071  -0.42749  -0.42630  -0.42323  -0.42208
  Beta  occ. eigenvalues --   -0.42071  -0.41782  -0.41455  -0.41278  -0.41022
  Beta  occ. eigenvalues --   -0.40951  -0.40730  -0.40397  -0.40060  -0.39792
  Beta  occ. eigenvalues --   -0.39535  -0.39476  -0.39259  -0.39088  -0.38884
  Beta  occ. eigenvalues --   -0.38183  -0.37716  -0.37476  -0.37349  -0.36593
  Beta  occ. eigenvalues --   -0.36392  -0.36182  -0.35929  -0.35727  -0.35559
  Beta  occ. eigenvalues --   -0.35472  -0.35283  -0.35149  -0.34944  -0.34532
  Beta  occ. eigenvalues --   -0.33769  -0.33559  -0.33426  -0.33301  -0.32660
  Beta  occ. eigenvalues --   -0.31942  -0.31745  -0.31229  -0.30973  -0.30901
  Beta  occ. eigenvalues --   -0.30743  -0.30485  -0.30433  -0.30037  -0.29957
  Beta  occ. eigenvalues --   -0.29331  -0.27893  -0.27866  -0.27572  -0.27475
  Beta  occ. eigenvalues --   -0.27214  -0.26888  -0.26405  -0.25382  -0.25195
  Beta  occ. eigenvalues --   -0.23987  -0.23601  -0.22862  -0.22544  -0.21561
  Beta virt. eigenvalues --   -0.15567  -0.15061  -0.13982  -0.11355  -0.10765
  Beta virt. eigenvalues --   -0.09679  -0.09345  -0.08353  -0.06956  -0.06344
  Beta virt. eigenvalues --   -0.06027  -0.05521  -0.05280  -0.05102  -0.04067

 Mulliken charges and spin densities:
               1          2
     1  C   -0.026484   0.072014
     2  C   -0.025809  -0.105674
     3  C   -0.363631  -0.020527
     4  C   -0.037613   0.273525
     5  C    0.048038   0.003962
     6  C   -0.019982   0.241385
     7  C    0.052936   0.260802
     8  C    0.006958   0.024794
     9  C    0.045454   0.040002
    10  C    0.052451  -0.094627
    11  C    0.131704   0.001776
    12  C    0.068643  -0.122309
    13  C   -0.028698  -0.023874
    14  C   -0.041805   0.370010
    15  C   -0.014708  -0.033303
    16  C    0.004173  -0.022129
    17  C   -0.007538   0.065896
    18  C    0.134508   0.052774
    19  C   -0.019373  -0.046918
    20  C    0.126159  -0.000615
    21  C   -0.019956   0.103933
    22  C   -0.375169  -0.002683
    23  C    0.000580  -0.024654
    24  C    0.087808   0.006487
    25  C   -0.016835   0.018941
    26  C    0.090379  -0.007957
    27  C   -0.021713   0.013383
    28  C    0.005477   0.059475
    29  C    0.050157   0.018860
    30  C    0.020206  -0.071470
    31  C   -0.031643  -0.019199
    32  C   -0.017444   0.096175
    33  C   -0.026964   0.049411
    34  C   -0.023227  -0.051299
    35  C    0.039866  -0.032959
    36  C    0.043356   0.054661
    37  C    0.046282   0.017208
    38  C    0.041580  -0.031982
    39  C    0.054088  -0.075324
    40  C   -0.029839  -0.108563
    41  C   -0.025082   0.192966
    42  C    0.058552   0.089023
    43  C   -0.029596   0.167303
    44  C    0.068146   0.092203
    45  C    0.084963  -0.124620
    46  C   -0.020899  -0.141179
    47  C    0.012379  -0.131341
    48  C    0.049310   0.299607
    49  C    0.001783   0.212301
    50  C   -0.361242  -0.014696
    51  C    0.050560   0.033280
    52  C    0.123888   0.057477
    53  C    0.005695  -0.057981
    54  C   -0.373245  -0.009784
    55  C    0.090589   0.110085
    56  C    0.089777  -0.079422
    57  C    0.047802  -0.037227
    58  C    0.087801   0.032944
    59  C    0.050639   0.011538
    60  C    0.003393  -0.003847
    61  C   -0.024074   0.009712
    62  C    0.007804  -0.000317
    63  C   -0.028561   0.006989
    64  C    0.044652   0.000698
    65  C   -0.030612   0.042397
    66  C    0.037766  -0.026445
    67  C    0.052495  -0.018248
    68  C    0.048892   0.059096
    69  C   -0.021221   0.016004
    70  C   -0.024639  -0.036444
    71  C   -0.006846   0.006333
    72  C    0.003557  -0.001328
    73  C   -0.009896  -0.032071
    74  C   -0.008918   0.027609
    75  C   -0.000954   0.052839
    76  C   -0.000774  -0.030783
    77  C   -0.025429  -0.035246
    78  C   -0.020526   0.077761
    79  C   -0.019392   0.163993
    80  C   -0.022078  -0.071529
    81  C   -0.004280   0.036808
    82  C   -0.020774  -0.012880
    83  C    0.007367   0.066563
    84  C    0.086079  -0.019041
    85  Cl   0.000100   0.003818
    86  Cl  -0.000303   0.010999
    87  Cl  -0.017423   0.023147
    88  Cl  -0.019598   0.031528
 Sum of Mulliken charges =  -0.00000   2.00000

 Dipole moment (field-independent basis, Debye):
    X=             -5.9003    Y=             -0.9476    Z=              1.6319  Tot=              6.1948
 Quadrupole moment (field-independent basis, Debye-Ang):
   XX=           -530.6126   YY=           -510.1335   ZZ=           -502.6935
   XY=             -4.4605   XZ=              6.3469   YZ=             -1.4133

 1\1\GINC-NODE01\FOpt\UB3LYP\6-31G(d,p)\C84Cl4(3)\MKLIU\30-Jun-2022\0\\
 #P opt b3lyp/6-31G(d, p) empiricaldispersion=GD3\\force\\0,3\C,8.52900
 64256,18.9333867701,10.772728181\C,12.425821235,20.2159224914,8.876667
 659\C,8.2562878403,27.028894699,10.6304728469\C,12.3266760865,25.49677
 56212,8.8940876718\C,8.0444288239,19.1195875544,9.4520919801\C,12.0616
 070631,19.741247233,10.1830683019\C,7.9827478061,26.8092251432,9.13987
 55468\C,11.8185784274,25.8452848609,10.2212004304\C,9.0160088182,19.21
 75020397,8.3560284986\C,12.2983690071,20.5152218202,11.3563290288\C,12

 Normal termination of Gaussian 16 at Thu Jun 30 20:06:02 2022.
